! AWR Design Environment (17492) Mon Jun 30 08:25:07 2025
! Document = 'test_mslines'
! nPorts: 2, nXvals: 991

# GHz S DB R 50
!Freq DBS11 AngS11 DBS21 AngS21 DBS12 AngS12 DBS22 AngS22 
0.1 -39.727644 48.298008 -0.057136381 -18.149971 -0.057136381 -18.149971 -39.727644 48.298008 
0.11 -39.197448 47.122173 -0.060683245 -19.949396 -0.060683245 -19.949396 -39.197448 47.122173 
0.12 -38.719457 45.901598 -0.064112928 -21.747779 -0.064112928 -21.747779 -38.719457 45.901598 
0.13 -38.285157 44.648428 -0.06743208 -23.545297 -0.06743208 -23.545297 -38.285157 44.648428 
0.14 -37.887945 43.370002 -0.070648733 -25.342093 -0.070648733 -25.342093 -37.887945 43.370002 
0.15 -37.522648 42.070735 -0.073771452 -27.138284 -0.073771452 -27.138284 -37.522648 42.070735 
0.16 -37.185178 40.753288 -0.076808759 -28.933963 -0.076808759 -28.933963 -37.185178 40.753288 
0.17 -36.872271 39.419296 -0.079768763 -30.729203 -0.079768763 -30.729203 -36.872271 39.419296 
0.18 -36.581294 38.069811 -0.082658953 -32.524064 -0.082658953 -32.524064 -36.581294 38.069811 
0.19 -36.310102 36.705574 -0.085486105 -34.318591 -0.085486105 -34.318591 -36.310102 36.705574 
0.2 -36.056931 35.327169 -0.088256259 -36.112822 -0.088256259 -36.112822 -36.056931 35.327169 
0.21 -35.820315 33.935112 -0.090974744 -37.906787 -0.090974744 -37.906787 -35.820315 33.935112 
0.22 -35.599021 32.529896 -0.093646229 -39.700509 -0.093646229 -39.700509 -35.599021 32.529896 
0.23 -35.392007 31.112017 -0.096274782 -41.494009 -0.096274782 -41.494009 -35.392007 31.112017 
0.24 -35.198381 29.681979 -0.098863941 -43.287302 -0.098863941 -43.287302 -35.198381 29.681979 
0.25 -35.017375 28.240296 -0.10141678 -45.080403 -0.10141678 -45.080403 -35.017375 28.240296 
0.26 -34.848323 26.787488 -0.10393595 -46.873322 -0.10393595 -46.873322 -34.848323 26.787488 
0.27 -34.690643 25.324076 -0.10642377 -48.666071 -0.10642377 -48.666071 -34.690643 25.324076 
0.28 -34.543823 23.850578 -0.10888225 -50.458657 -0.10888225 -50.458657 -34.543823 23.850578 
0.29 -34.407414 22.367504 -0.11131316 -52.25109 -0.11131316 -52.25109 -34.407414 22.367504 
0.3 -34.281014 20.875351 -0.11371801 -54.043375 -0.11371801 -54.043375 -34.281014 20.875351 
0.31 -34.164271 19.374601 -0.11609817 -55.83552 -0.11609817 -55.83552 -34.164271 19.374601 
0.32 -34.056867 17.865718 -0.11845482 -57.627532 -0.11845482 -57.627532 -34.056867 17.865718 
0.33 -33.958522 16.349149 -0.12078903 -59.419415 -0.12078903 -59.419415 -33.958522 16.349149 
0.34 -33.868985 14.825319 -0.12310175 -61.211176 -0.12310175 -61.211176 -33.868985 14.825319 
0.35 -33.788031 13.294635 -0.12539383 -63.00282 -0.12539383 -63.00282 -33.788031 13.294635 
0.36 -33.715463 11.757481 -0.12766603 -64.794351 -0.12766603 -64.794351 -33.715463 11.757481 
0.37 -33.651103 10.214223 -0.12991908 -66.585776 -0.12991908 -66.585776 -33.651103 10.214223 
0.38 -33.594797 8.6652085 -0.13215361 -68.377097 -0.13215361 -68.377097 -33.594797 8.6652085 
0.39 -33.546407 7.1107648 -0.13437023 -70.168321 -0.13437023 -70.168321 -33.546407 7.1107648 
0.4 -33.505817 5.551203 -0.13656949 -71.959451 -0.13656949 -71.959451 -33.505817 5.551203 
0.41 -33.472924 3.9868175 -0.13875194 -73.750492 -0.13875194 -73.750492 -33.472924 3.9868175 
0.42 -33.447642 2.4178874 -0.14091806 -75.541448 -0.14091806 -75.541448 -33.447642 2.4178874 
0.43 -33.4299 0.84467797 -0.14306833 -77.332322 -0.14306833 -77.332322 -33.4299 0.84467797 
0.44 -33.419644 -0.73255892 -0.14520321 -79.123119 -0.14520321 -79.123119 -33.419644 -0.73255892 
0.45 -33.41683 -2.3135831 -0.14732312 -80.913843 -0.14732312 -80.913843 -33.41683 -2.3135831 
0.46 -33.42143 -3.898165 -0.14942851 -82.704497 -0.14942851 -82.704497 -33.42143 -3.898165 
0.47 -33.433429 -5.4860851 -0.15151976 -84.495084 -0.15151976 -84.495084 -33.433429 -5.4860851 
0.48 -33.452825 -7.0771321 -0.1535973 -86.285609 -0.1535973 -86.285609 -33.452825 -7.0771321 
0.49 -33.479629 -8.6711023 -0.1556615 -88.076073 -0.1556615 -88.076073 -33.479629 -8.6711023 
0.5 -33.513867 -10.267798 -0.15771275 -89.866481 -0.15771275 -89.866481 -33.513867 -10.267798 
0.51 -33.555575 -11.867029 -0.15975143 -91.656835 -0.15975143 -91.656835 -33.555575 -11.867029 
0.52 -33.604805 -13.468606 -0.1617779 -93.447139 -0.1617779 -93.447139 -33.604805 -13.468606 
0.53 -33.661622 -15.072347 -0.16379253 -95.237395 -0.16379253 -95.237395 -33.661622 -15.072347 
0.54 -33.726106 -16.678068 -0.16579569 -97.027605 -0.16579569 -97.027605 -33.726106 -16.678068 
0.55 -33.798349 -18.285591 -0.16778773 -98.817773 -0.16778773 -98.817773 -33.798349 -18.285591 
0.56 -33.878461 -19.894734 -0.169769 -100.6079 -0.169769 -100.6079 -33.878461 -19.894734 
0.57 -33.966569 -21.505317 -0.17173984 -102.39799 -0.17173984 -102.39799 -33.966569 -21.505317 
0.58 -34.062813 -23.117156 -0.17370062 -104.18804 -0.17370062 -104.18804 -34.062813 -23.117156 
0.59 -34.167356 -24.730066 -0.17565165 -105.97807 -0.17565165 -105.97807 -34.167356 -24.730066 
0.6 -34.280377 -26.343854 -0.1775933 -107.76805 -0.1775933 -107.76805 -34.280377 -26.343854 
0.61 -34.402077 -27.958323 -0.17952588 -109.55801 -0.17952588 -109.55801 -34.402077 -27.958323 
0.62 -34.532679 -29.573267 -0.18144972 -111.34794 -0.18144972 -111.34794 -34.532679 -29.573267 
0.63 -34.672431 -31.188472 -0.18336517 -113.13785 -0.18336517 -113.13785 -34.672431 -31.188472 
0.64 -34.821607 -32.803708 -0.18527253 -114.92773 -0.18527253 -114.92773 -34.821607 -32.803708 
0.65 -34.980509 -34.418736 -0.18717213 -116.71759 -0.18717213 -116.71759 -34.980509 -34.418736 
0.66 -35.149474 -36.033296 -0.18906428 -118.50742 -0.18906428 -118.50742 -35.149474 -36.033296 
0.67 -35.328872 -37.64711 -0.1909493 -120.29724 -0.1909493 -120.29724 -35.328872 -37.64711 
0.68 -35.519113 -39.259873 -0.19282748 -122.08703 -0.19282748 -122.08703 -35.519113 -39.259873 
0.69 -35.720651 -40.871255 -0.19469913 -123.87681 -0.19469913 -123.87681 -35.720651 -40.871255 
0.7 -35.933988 -42.48089 -0.19656454 -125.66657 -0.19656454 -125.66657 -35.933988 -42.48089 
0.71 -36.159684 -44.088374 -0.198424 -127.45631 -0.198424 -127.45631 -36.159684 -44.088374 
0.72 -36.398358 -45.693253 -0.2002778 -129.24604 -0.2002778 -129.24604 -36.398358 -45.693253 
0.73 -36.650705 -47.295019 -0.20212621 -131.03575 -0.20212621 -131.03575 -36.650705 -47.295019 
0.74 -36.917497 -48.893094 -0.2039695 -132.82544 -0.2039695 -132.82544 -36.917497 -48.893094 
0.75 -37.199604 -50.486821 -0.20580794 -134.61513 -0.20580794 -134.61513 -37.199604 -50.486821 
0.76 -37.498001 -52.075441 -0.20764179 -136.4048 -0.20764179 -136.4048 -37.498001 -52.075441 
0.77 -37.813793 -53.658077 -0.20947129 -138.19445 -0.20947129 -138.19445 -37.813793 -53.658077 
0.78 -38.14823 -55.233704 -0.21129668 -139.9841 -0.21129668 -139.9841 -38.14823 -55.233704 
0.79 -38.502738 -56.801114 -0.2131182 -141.77373 -0.2131182 -141.77373 -38.502738 -56.801114 
0.8 -38.878952 -58.358874 -0.21493607 -143.56334 -0.21493607 -143.56334 -38.878952 -58.358874 
0.81 -39.278754 -59.905261 -0.21675051 -145.35295 -0.21675051 -145.35295 -39.278754 -59.905261 
0.82 -39.704327 -61.438191 -0.21856173 -147.14254 -0.21856173 -147.14254 -39.704327 -61.438191 
0.83 -40.158222 -62.955109 -0.22036992 -148.93212 -0.22036992 -148.93212 -40.158222 -62.955109 
0.84 -40.643443 -64.452851 -0.22217528 -150.72169 -0.22217528 -150.72169 -40.643443 -64.452851 
0.85 -41.163558 -65.927439 -0.22397798 -152.51124 -0.22397798 -152.51124 -41.163558 -65.927439 
0.86 -41.722852 -67.373806 -0.2257782 -154.30079 -0.2257782 -154.30079 -41.722852 -67.373806 
0.87 -42.326525 -68.78539 -0.22757609 -156.09031 -0.22757609 -156.09031 -42.326525 -68.78539 
0.88 -42.980974 -70.15353 -0.2293718 -157.87983 -0.2293718 -157.87983 -42.980974 -70.15353 
0.89 -43.694185 -71.466557 -0.23116547 -159.66933 -0.23116547 -159.66933 -43.694185 -71.466557 
0.9 -44.476302 -72.708357 -0.23295724 -161.45881 -0.23295724 -161.45881 -44.476302 -72.708357 
0.91 -45.340472 -73.856035 -0.23474721 -163.24828 -0.23474721 -163.24828 -45.340472 -73.856035 
0.92 -46.304144 -74.87593 -0.2365355 -165.03774 -0.2365355 -165.03774 -46.304144 -74.87593 
0.93 -47.391138 -75.71648 -0.23832221 -166.82718 -0.23832221 -166.82718 -47.391138 -75.71648 
0.94 -48.63511 -76.294573 -0.24010742 -168.6166 -0.24010742 -168.6166 -48.63511 -76.294573 
0.95 -50.08564 -76.467333 -0.2418912 -170.40601 -0.2418912 -170.40601 -50.08564 -76.467333 
0.96 -51.819612 -75.967594 -0.24367363 -172.1954 -0.24367363 -172.1954 -51.819612 -75.967594 
0.97 -53.963742 -74.235552 -0.24545476 -173.98477 -0.24545476 -173.98477 -53.963742 -74.235552 
0.98 -56.739417 -69.894514 -0.24723463 -175.77412 -0.24723463 -175.77412 -56.739417 -69.894514 
0.99 -60.508922 -58.70848 -0.24901328 -177.56346 -0.24901328 -177.56346 -60.508922 -58.70848 
1 -64.893927 -25.759311 -0.25079072 -179.35277 -0.25079072 -179.35277 -64.893927 -25.759311 
1.01 -63.794276 28.340108 -0.25256699 178.85794 -0.25256699 178.85794 -63.794276 28.340108 
1.02 -59.347572 52.426063 -0.25434207 177.06866 -0.25434207 177.06866 -59.347572 52.426063 
1.03 -55.937432 60.81945 -0.25611597 175.27941 -0.25611597 175.27941 -55.937432 60.81945 
1.04 -53.406422 64.166183 -0.25788868 173.49018 -0.25788868 173.49018 -53.406422 64.166183 
1.05 -51.429536 65.449184 -0.25966015 171.70097 -0.25966015 171.70097 -51.429536 65.449184 
1.06 -49.819085 65.70912 -0.26143038 169.91178 -0.26143038 169.91178 -49.819085 65.70912 
1.07 -48.466112 65.391855 -0.26319931 168.12262 -0.26319931 168.12262 -48.466112 65.391855 
1.08 -47.303285 64.718137 -0.2649669 166.33348 -0.2649669 166.33348 -47.303285 64.718137 
1.09 -46.286491 63.809222 -0.26673309 164.54436 -0.26673309 164.54436 -46.286491 63.809222 
1.1 -45.385402 62.737088 -0.26849783 162.75527 -0.26849783 162.75527 -45.385402 62.737088 
1.11 -44.578323 61.547103 -0.27026103 160.9662 -0.27026103 160.9662 -44.578323 61.547103 
1.12 -43.849228 60.269259 -0.27202262 159.17716 -0.27202262 159.17716 -43.849228 60.269259 
1.13 -43.185957 58.924171 -0.27378253 157.38814 -0.27378253 157.38814 -43.185957 58.924171 
1.14 -42.57907 57.52647 -0.27554066 155.59915 -0.27554066 155.59915 -42.57907 57.52647 
1.15 -42.021099 56.08683 -0.27729692 153.81018 -0.27729692 153.81018 -42.021099 56.08683 
1.16 -41.506039 54.613218 -0.27905122 152.02124 -0.27905122 152.02124 -41.506039 54.613218 
1.17 -41.028987 53.111705 -0.28080345 150.23232 -0.28080345 150.23232 -41.028987 53.111705 
1.18 -40.585897 51.586997 -0.28255351 148.44343 -0.28255351 148.44343 -40.585897 51.586997 
1.19 -40.173387 50.0428 -0.28430129 146.65457 -0.28430129 146.65457 -40.173387 50.0428 
1.2 -39.788605 48.482073 -0.28604669 144.86572 -0.28604669 144.86572 -39.788605 48.482073 
1.21 -39.429128 46.90721 -0.28778959 143.07691 -0.28778959 143.07691 -39.429128 46.90721 
1.22 -39.092876 45.320167 -0.28952987 141.28812 -0.28952987 141.28812 -39.092876 45.320167 
1.23 -38.778057 43.722562 -0.29126744 139.49935 -0.29126744 139.49935 -38.778057 43.722562 
1.24 -38.483112 42.115742 -0.29300217 137.71061 -0.29300217 137.71061 -38.483112 42.115742 
1.25 -38.206682 40.500842 -0.29473394 135.92189 -0.29473394 135.92189 -38.206682 40.500842 
1.26 -37.947575 38.878824 -0.29646266 134.13319 -0.29646266 134.13319 -37.947575 38.878824 
1.27 -37.704741 37.250511 -0.2981882 132.34452 -0.2981882 132.34452 -37.704741 37.250511 
1.28 -37.477251 35.616612 -0.29991046 130.55587 -0.29991046 130.55587 -37.477251 35.616612 
1.29 -37.264278 33.977739 -0.30162932 128.76724 -0.30162932 128.76724 -37.264278 33.977739 
1.3 -37.065091 32.334429 -0.3033447 126.97863 -0.3033447 126.97863 -37.065091 32.334429 
1.31 -36.879034 30.687153 -0.30505648 125.19004 -0.30505648 125.19004 -36.879034 30.687153 
1.32 -36.705521 29.036324 -0.30676456 123.40148 -0.30676456 123.40148 -36.705521 29.036324 
1.33 -36.544028 27.382314 -0.30846887 121.61293 -0.30846887 121.61293 -36.544028 27.382314 
1.34 -36.394086 25.725452 -0.3101693 119.8244 -0.3101693 119.8244 -36.394086 25.725452 
1.35 -36.255272 24.066036 -0.31186578 118.03589 -0.31186578 118.03589 -36.255272 24.066036 
1.36 -36.127209 22.404334 -0.31355823 116.24739 -0.31355823 116.24739 -36.127209 22.404334 
1.37 -36.009556 20.740592 -0.31524658 114.45891 -0.31524658 114.45891 -36.009556 20.740592 
1.38 -35.902009 19.075034 -0.31693076 112.67044 -0.31693076 112.67044 -35.902009 19.075034 
1.39 -35.804297 17.407868 -0.31861072 110.88199 -0.31861072 110.88199 -35.804297 17.407868 
1.4 -35.716176 15.739285 -0.32028639 109.09355 -0.32028639 109.09355 -35.716176 15.739285 
1.41 -35.637431 14.069465 -0.32195775 107.30512 -0.32195775 107.30512 -35.637431 14.069465 
1.42 -35.567872 12.398576 -0.32362474 105.51671 -0.32362474 105.51671 -35.567872 12.398576 
1.43 -35.50733 10.726779 -0.32528735 103.7283 -0.32528735 103.7283 -35.50733 10.726779 
1.44 -35.455661 9.054226 -0.32694555 101.9399 -0.32694555 101.9399 -35.455661 9.054226 
1.45 -35.412738 7.3810639 -0.32859932 100.15151 -0.32859932 100.15151 -35.412738 7.3810639 
1.46 -35.378457 5.7074347 -0.33024865 98.363121 -0.33024865 98.363121 -35.378457 5.7074347 
1.47 -35.35273 4.0334767 -0.33189356 96.574741 -0.33189356 96.574741 -35.35273 4.0334767 
1.48 -35.335489 2.3593263 -0.33353405 94.786364 -0.33353405 94.786364 -35.335489 2.3593263 
1.49 -35.32668 0.68511842 -0.33517014 92.99799 -0.33517014 92.99799 -35.32668 0.68511842 
1.5 -35.326269 -0.98901224 -0.33680186 91.209617 -0.33680186 91.209617 -35.326269 -0.98901224 
1.51 -35.334237 -2.6629301 -0.33842923 89.421246 -0.33842923 89.421246 -35.334237 -2.6629301 
1.52 -35.350583 -4.3364978 -0.34005231 87.632873 -0.34005231 87.632873 -35.350583 -4.3364978 
1.53 -35.375321 -6.0095751 -0.34167114 85.8445 -0.34167114 85.8445 -35.375321 -6.0095751 
1.54 -35.408481 -7.6820178 -0.34328578 84.056124 -0.34328578 84.056124 -35.408481 -7.6820178 
1.55 -35.450111 -9.3536767 -0.3448963 82.267744 -0.3448963 82.267744 -35.450111 -9.3536767 
1.56 -35.500276 -11.024396 -0.34650276 80.479359 -0.34650276 80.479359 -35.500276 -11.024396 
1.57 -35.559059 -12.694013 -0.34810527 78.690969 -0.34810527 78.690969 -35.559059 -12.694013 
1.58 -35.626559 -14.362354 -0.34970389 76.902573 -0.34970389 76.902573 -35.626559 -14.362354 
1.59 -35.702896 -16.029238 -0.35129873 75.114169 -0.35129873 75.114169 -35.702896 -16.029238 
1.6 -35.78821 -17.69447 -0.35288988 73.325756 -0.35288988 73.325756 -35.78821 -17.69447 
1.61 -35.882662 -19.357839 -0.35447746 71.537335 -0.35447746 71.537335 -35.882662 -19.357839 
1.62 -35.986435 -21.019119 -0.35606157 69.748903 -0.35606157 69.748903 -35.986435 -21.019119 
1.63 -36.099736 -22.678067 -0.35764235 67.960461 -0.35764235 67.960461 -36.099736 -22.678067 
1.64 -36.222801 -24.334414 -0.3592199 66.172007 -0.3592199 66.172007 -36.222801 -24.334414 
1.65 -36.35589 -25.987869 -0.36079436 64.38354 -0.36079436 64.38354 -36.35589 -25.987869 
1.66 -36.499297 -27.63811 -0.36236587 62.595061 -0.36236587 62.595061 -36.499297 -27.63811 
1.67 -36.653348 -29.284782 -0.36393455 60.806569 -0.36393455 60.806569 -36.653348 -29.284782 
1.68 -36.818407 -30.927491 -0.36550056 59.018062 -0.36550056 59.018062 -36.818407 -30.927491 
1.69 -36.994879 -32.565797 -0.36706403 57.229541 -0.36706403 57.229541 -36.994879 -32.565797 
1.7 -37.183217 -34.199207 -0.36862511 55.441006 -0.36862511 55.441006 -37.183217 -34.199207 
1.71 -37.383922 -35.827168 -0.37018395 53.652455 -0.37018395 53.652455 -37.383922 -35.827168 
1.72 -37.597554 -37.449052 -0.3717407 51.863888 -0.3717407 51.863888 -37.597554 -37.449052 
1.73 -37.824741 -39.064146 -0.3732955 50.075306 -0.3732955 50.075306 -37.824741 -39.064146 
1.74 -38.06618 -40.671635 -0.37484851 48.286707 -0.37484851 48.286707 -38.06618 -40.671635 
1.75 -38.322659 -42.270582 -0.37639989 46.498093 -0.37639989 46.498093 -38.322659 -42.270582 
1.76 -38.595059 -43.859907 -0.37794978 44.709462 -0.37794978 44.709462 -38.595059 -43.859907 
1.77 -38.884376 -45.438351 -0.37949832 42.920815 -0.37949832 42.920815 -38.884376 -45.438351 
1.78 -39.191737 -47.004442 -0.38104568 41.132152 -0.38104568 41.132152 -39.191737 -47.004442 
1.79 -39.518422 -48.556445 -0.382592 39.343473 -0.382592 39.343473 -39.518422 -48.556445 
1.8 -39.865893 -50.0923 -0.38413741 37.554777 -0.38413741 37.554777 -39.865893 -50.0923 
1.81 -40.235827 -51.609544 -0.38568207 35.766066 -0.38568207 35.766066 -40.235827 -51.609544 
1.82 -40.630159 -53.105201 -0.3872261 33.977339 -0.3872261 33.977339 -40.630159 -53.105201 
1.83 -41.051138 -54.575646 -0.38876965 32.188597 -0.38876965 32.188597 -41.051138 -54.575646 
1.84 -41.501389 -56.016411 -0.39031285 30.39984 -0.39031285 30.39984 -41.501389 -56.016411 
1.85 -41.984008 -57.421933 -0.39185581 28.611068 -0.39185581 28.611068 -41.984008 -57.421933 
1.86 -42.502677 -58.785189 -0.39339866 26.822283 -0.39339866 26.822283 -42.502677 -58.785189 
1.87 -43.06181 -60.097186 -0.39494152 25.033483 -0.39494152 25.033483 -43.06181 -60.097186 
1.88 -43.666767 -61.346222 -0.39648448 23.24467 -0.39648448 23.24467 -43.666767 -61.346222 
1.89 -44.32413 -62.516784 -0.39802767 21.455845 -0.39802767 21.455845 -44.32413 -62.516784 
1.9 -45.0421 -63.587872 -0.39957116 19.667007 -0.39957116 19.667007 -45.0421 -63.587872 
1.91 -45.831053 -64.530352 -0.40111506 17.878159 -0.40111506 17.878159 -45.831053 -64.530352 
1.92 -46.704353 -65.302641 -0.40265944 16.089299 -0.40265944 16.089299 -46.704353 -65.302641 
1.93 -47.679568 -65.843348 -0.40420438 14.300429 -0.40420438 14.300429 -47.679568 -65.843348 
1.94 -48.780311 -66.058104 -0.40574995 12.51155 -0.40574995 12.51155 -48.780311 -66.058104 
1.95 -50.039085 -65.794565 -0.4072962 10.722662 -0.4072962 10.722662 -50.039085 -65.794565 
1.96 -51.501635 -64.791523 -0.4088432 8.9337662 -0.4088432 8.9337662 -51.501635 -64.791523 
1.97 -53.232944 -62.566556 -0.41039097 7.1448632 -0.41039097 7.1448632 -53.232944 -62.566556 
1.98 -55.321027 -58.145248 -0.41193957 5.3559537 -0.41193957 5.3559537 -55.321027 -58.145248 
1.99 -57.846777 -49.370996 -0.41348901 3.5670386 -0.41348901 3.5670386 -57.846777 -49.370996 
2 -60.618667 -31.5056 -0.41503932 1.7781187 -0.41503932 1.7781187 -60.618667 -31.5056 
2.01 -62.120099 -0.005943931 -0.41659051 -0.01080539 -0.41659051 -0.01080539 -62.120099 -0.005943931 
2.02 -60.555686 31.164516 -0.41814259 -1.7997328 -0.41814259 -1.7997328 -60.555686 31.164516 
2.03 -57.793145 48.663494 -0.41969554 -3.5886626 -0.41969554 -3.5886626 -57.793145 48.663494 
2.04 -55.29406 57.25718 -0.42124935 -5.3775943 -0.42124935 -5.3775943 -55.29406 57.25718 
2.05 -53.231572 61.590985 -0.42280401 -7.1665269 -0.42280401 -7.1665269 -53.231572 61.590985 
2.06 -51.523 63.769312 -0.42435948 -8.9554598 -0.42435948 -8.9554598 -51.523 63.769312 
2.07 -50.08093 64.745149 -0.42591573 -10.744392 -0.42591573 -10.744392 -50.08093 64.745149 
2.08 -48.84104 64.991647 -0.42747271 -12.533323 -0.42747271 -12.533323 -48.84104 64.991647 
2.09 -47.758059 64.765616 -0.42903038 -14.322253 -0.42903038 -14.322253 -47.758059 64.765616 
2.1 -46.799801 64.217134 -0.43058867 -16.11118 -0.43058867 -16.11118 -46.799801 64.217134 
2.11 -45.942869 63.439315 -0.43214751 -17.900103 -0.43214751 -17.900103 -45.942869 63.439315 
2.12 -45.169843 62.492815 -0.43370685 -19.689023 -0.43370685 -19.689023 -45.169843 62.492815 
2.13 -44.467463 61.418765 -0.43526659 -21.477939 -0.43526659 -21.477939 -44.467463 61.418765 
2.14 -43.825429 60.24601 -0.43682666 -23.266849 -0.43682666 -23.266849 -43.825429 60.24601 
2.15 -43.235596 58.995359 -0.43838696 -25.055755 -0.43838696 -25.055755 -43.235596 58.995359 
2.16 -42.691424 57.682193 -0.43994741 -26.844654 -0.43994741 -26.844654 -42.691424 57.682193 
2.17 -42.187586 56.318128 -0.44150789 -28.633548 -0.44150789 -28.633548 -42.187586 56.318128 
2.18 -41.719691 54.91209 -0.44306832 -30.422434 -0.44306832 -30.422434 -41.719691 54.91209 
2.19 -41.28408 53.47106 -0.44462858 -32.211314 -0.44462858 -32.211314 -41.28408 53.47106 
2.2 -40.877673 52.00057 -0.44618855 -34.000187 -0.44618855 -34.000187 -40.877673 52.00057 
2.21 -40.497855 50.505064 -0.44774814 -35.789052 -0.44774814 -35.789052 -40.497855 50.505064 
2.22 -40.142392 48.988152 -0.44930721 -37.57791 -0.44930721 -37.57791 -40.142392 48.988152 
2.23 -39.809357 47.4528 -0.45086566 -39.366759 -0.45086566 -39.366759 -39.809357 47.4528 
2.24 -39.49708 45.901466 -0.45242336 -41.155602 -0.45242336 -41.155602 -39.49708 45.901466 
2.25 -39.204107 44.336207 -0.45398019 -42.944436 -0.45398019 -42.944436 -39.204107 44.336207 
2.26 -38.929162 42.758757 -0.45553603 -44.733263 -0.45553603 -44.733263 -38.929162 42.758757 
2.27 -38.671125 41.17059 -0.45709075 -46.522081 -0.45709075 -46.522081 -38.671125 41.17059 
2.28 -38.429004 39.572969 -0.45864424 -48.310893 -0.45864424 -48.310893 -38.429004 39.572969 
2.29 -38.20192 37.966982 -0.46019638 -50.099697 -0.46019638 -50.099697 -38.20192 37.966982 
2.3 -37.989092 36.353572 -0.46174705 -51.888493 -0.46174705 -51.888493 -37.989092 36.353572 
2.31 -37.789823 34.733563 -0.46329612 -53.677283 -0.46329612 -53.677283 -37.789823 34.733563 
2.32 -37.60349 33.107677 -0.46484348 -55.466066 -0.46484348 -55.466066 -37.60349 33.107677 
2.33 -37.429536 31.476554 -0.46638903 -57.254844 -0.46638903 -57.254844 -37.429536 31.476554 
2.34 -37.26746 29.840761 -0.46793265 -59.043615 -0.46793265 -59.043615 -37.26746 29.840761 
2.35 -37.116814 28.200804 -0.46947423 -60.832381 -0.46947423 -60.832381 -37.116814 28.200804 
2.36 -36.977195 26.557139 -0.47101368 -62.621143 -0.47101368 -62.621143 -36.977195 26.557139 
2.37 -36.84824 24.910176 -0.47255089 -64.4099 -0.47255089 -64.4099 -36.84824 24.910176 
2.38 -36.729625 23.26029 -0.47408577 -66.198653 -0.47408577 -66.198653 -36.729625 23.26029 
2.39 -36.621058 21.607822 -0.47561824 -67.987404 -0.47561824 -67.987404 -36.621058 21.607822 
2.4 -36.52228 19.953085 -0.47714821 -69.776152 -0.47714821 -69.776152 -36.52228 19.953085 
2.41 -36.433059 18.296371 -0.47867561 -71.564899 -0.47867561 -71.564899 -36.433059 18.296371 
2.42 -36.353187 16.637949 -0.48020037 -73.353644 -0.48020037 -73.353644 -36.353187 16.637949 
2.43 -36.282484 14.978072 -0.48172241 -75.14239 -0.48172241 -75.14239 -36.282484 14.978072 
2.44 -36.22079 13.316979 -0.4832417 -76.931137 -0.4832417 -76.931137 -36.22079 13.316979 
2.45 -36.167967 11.654898 -0.48475816 -78.719884 -0.48475816 -78.719884 -36.167967 11.654898 
2.46 -36.123897 9.9920451 -0.48627177 -80.508635 -0.48627177 -80.508635 -36.123897 9.9920451 
2.47 -36.088479 8.3286301 -0.48778249 -82.297388 -0.48778249 -82.297388 -36.088479 8.3286301 
2.48 -36.061634 6.6648561 -0.48929028 -84.086145 -0.48929028 -84.086145 -36.061634 6.6648561 
2.49 -36.043298 5.0009222 -0.49079512 -85.874908 -0.49079512 -85.874908 -36.043298 5.0009222 
2.5 -36.033424 3.3370246 -0.49229701 -87.663676 -0.49229701 -87.663676 -36.033424 3.3370246 
2.51 -36.031983 1.6733586 -0.49379593 -89.452451 -0.49379593 -89.452451 -36.031983 1.6733586 
2.52 -36.038961 0.01011965 -0.49529189 -91.241233 -0.49529189 -91.241233 -36.038961 0.01011965 
2.53 -36.054361 -1.6524947 -0.49678489 -93.030024 -0.49678489 -93.030024 -36.054361 -1.6524947 
2.54 -36.078202 -3.3142836 -0.49827495 -94.818824 -0.49827495 -94.818824 -36.078202 -3.3142836 
2.55 -36.110521 -4.9750412 -0.49976211 -96.607634 -0.49976211 -96.607634 -36.110521 -4.9750412 
2.56 -36.151369 -6.6345546 -0.50124638 -98.396456 -0.50124638 -98.396456 -36.151369 -6.6345546 
2.57 -36.200818 -8.292603 -0.5027278 -100.18529 -0.5027278 -100.18529 -36.200818 -8.292603 
2.58 -36.258953 -9.9489548 -0.50420644 -101.97414 -0.50420644 -101.97414 -36.258953 -9.9489548 
2.59 -36.325882 -11.603366 -0.50568233 -103.763 -0.50568233 -103.763 -36.325882 -11.603366 
2.6 -36.401729 -13.255579 -0.50715554 -105.55187 -0.50715554 -105.55187 -36.401729 -13.255579 
2.61 -36.486639 -14.905317 -0.50862613 -107.34076 -0.50862613 -107.34076 -36.486639 -14.905317 
2.62 -36.580781 -16.552284 -0.51009418 -109.12966 -0.51009418 -109.12966 -36.580781 -16.552284 
2.63 -36.684343 -18.196163 -0.51155978 -110.91859 -0.51155978 -110.91859 -36.684343 -18.196163 
2.64 -36.797541 -19.836607 -0.51302299 -112.70752 -0.51302299 -112.70752 -36.797541 -19.836607 
2.65 -36.920615 -21.47324 -0.51448392 -114.49648 -0.51448392 -114.49648 -36.920615 -21.47324 
2.66 -37.053836 -23.105649 -0.51594267 -116.28546 -0.51594267 -116.28546 -37.053836 -23.105649 
2.67 -37.197505 -24.73338 -0.51739932 -118.07445 -0.51739932 -118.07445 -37.197505 -24.73338 
2.68 -37.351959 -26.355932 -0.51885399 -119.86347 -0.51885399 -119.86347 -37.351959 -26.355932 
2.69 -37.517571 -27.972747 -0.52030679 -121.6525 -0.52030679 -121.6525 -37.517571 -27.972747 
2.7 -37.69476 -29.583203 -0.52175783 -123.44156 -0.52175783 -123.44156 -37.69476 -29.583203 
2.71 -37.883988 -31.186602 -0.52320723 -125.23063 -0.52320723 -125.23063 -37.883988 -31.186602 
2.72 -38.085772 -32.782158 -0.52465511 -127.01973 -0.52465511 -127.01973 -38.085772 -32.782158 
2.73 -38.300688 -34.368981 -0.52610158 -128.80885 -0.52610158 -128.80885 -38.300688 -34.368981 
2.74 -38.52938 -35.946056 -0.52754678 -130.59799 -0.52754678 -130.59799 -38.52938 -35.946056 
2.75 -38.772566 -37.512225 -0.52899082 -132.38715 -0.52899082 -132.38715 -38.772566 -37.512225 
2.76 -39.031053 -39.066151 -0.53043384 -134.17634 -0.53043384 -134.17634 -39.031053 -39.066151 
2.77 -39.305748 -40.60629 -0.53187596 -135.96554 -0.53187596 -135.96554 -39.305748 -40.60629 
2.78 -39.597675 -42.130842 -0.53331731 -137.75477 -0.53331731 -137.75477 -39.597675 -42.130842 
2.79 -39.90799 -43.637699 -0.53475802 -139.54403 -0.53475802 -139.54403 -39.90799 -43.637699 
2.8 -40.238011 -45.12437 -0.5361982 -141.3333 -0.5361982 -141.3333 -40.238011 -45.12437 
2.81 -40.589238 -46.587893 -0.53763799 -143.1226 -0.53763799 -143.1226 -40.589238 -46.587893 
2.82 -40.963394 -48.024718 -0.53907752 -144.91192 -0.53907752 -144.91192 -40.963394 -48.024718 
2.83 -41.362467 -49.430547 -0.54051689 -146.70126 -0.54051689 -146.70126 -41.362467 -49.430547 
2.84 -41.788761 -50.800134 -0.54195622 -148.49062 -0.54195622 -148.49062 -41.788761 -50.800134 
2.85 -42.244971 -52.127 -0.54339564 -150.28001 -0.54339564 -150.28001 -42.244971 -52.127 
2.86 -42.734265 -53.403053 -0.54483526 -152.06941 -0.54483526 -152.06941 -42.734265 -53.403053 
2.87 -43.260405 -54.618057 -0.54627518 -153.85884 -0.54627518 -153.85884 -43.260405 -54.618057 
2.88 -43.827891 -55.758869 -0.5477155 -155.64828 -0.5477155 -155.64828 -43.827891 -55.758869 
2.89 -44.442168 -56.808342 -0.54915633 -157.43775 -0.54915633 -157.43775 -44.442168 -56.808342 
2.9 -45.109886 -57.743691 -0.55059777 -159.22723 -0.55059777 -159.22723 -45.109886 -57.743691 
2.91 -45.839275 -58.533995 -0.55203988 -161.01674 -0.55203988 -161.01674 -45.839275 -58.533995 
2.92 -46.640636 -59.136273 -0.55348278 -162.80626 -0.55348278 -162.80626 -46.640636 -59.136273 
2.93 -47.527041 -59.489107 -0.55492652 -164.5958 -0.55492652 -164.5958 -47.527041 -59.489107 
2.94 -48.515277 -59.501854 -0.55637118 -166.38536 -0.55637118 -166.38536 -48.515277 -59.501854 
2.95 -49.627094 -59.035619 -0.55781682 -168.17493 -0.55781682 -168.17493 -49.627094 -59.035619 
2.96 -50.890629 -57.868063 -0.55926351 -169.96452 -0.55926351 -169.96452 -50.890629 -57.868063 
2.97 -52.341149 -55.625158 -0.5607113 -171.75412 -0.5607113 -171.75412 -52.341149 -55.625158 
2.98 -54.017211 -51.644016 -0.56216022 -173.54374 -0.56216022 -173.54374 -54.017211 -51.644016 
2.99 -55.936348 -44.703607 -0.56361032 -175.33337 -0.56361032 -175.33337 -55.936348 -44.703607 
3 -57.991651 -32.641659 -0.56506163 -177.12302 -0.56506163 -177.12302 -57.991651 -32.641659 
3.01 -59.647478 -12.933583 -0.56651416 -178.91268 -0.56651416 -178.91268 -59.647478 -12.933583 
3.02 -59.832368 12.175738 -0.56796795 179.29765 -0.56796795 179.29765 -59.832368 12.175738 
3.03 -58.383043 33.389044 -0.56942298 177.50798 -0.56942298 177.50798 -58.383043 33.389044 
3.04 -56.351168 46.763921 -0.57087927 175.71829 -0.57087927 175.71829 -56.351168 46.763921 
3.05 -54.398995 54.489915 -0.5723368 173.92859 -0.5723368 173.92859 -54.398995 54.489915 
3.06 -52.684802 58.923482 -0.57379557 172.13888 -0.57379557 172.13888 -52.684802 58.923482 
3.07 -51.202653 61.438453 -0.57525554 170.34917 -0.57525554 170.34917 -51.202653 61.438453 
3.08 -49.914959 62.779033 -0.5767167 168.55944 -0.5767167 168.55944 -49.914959 62.779033 
3.09 -48.785239 63.361201 -0.578179 166.76972 -0.578179 166.76972 -48.785239 63.361201 
3.1 -47.783984 63.429755 -0.57964241 164.97998 -0.57964241 164.97998 -47.783984 63.429755 
3.11 -46.888325 63.136229 -0.58110687 163.19024 -0.58110687 163.19024 -46.888325 63.136229 
3.12 -46.080623 62.578735 -0.58257233 161.4005 -0.58257233 161.4005 -46.080623 62.578735 
3.13 -45.347175 61.823303 -0.58403873 159.61075 -0.58403873 159.61075 -45.347175 61.823303 
3.14 -44.677205 60.915873 -0.585506 157.82101 -0.585506 157.82101 -44.677205 60.915873 
3.15 -44.06213 59.88933 -0.58697406 156.03125 -0.58697406 156.03125 -44.06213 59.88933 
3.16 -43.495026 58.767805 -0.58844284 154.2415 -0.58844284 154.2415 -43.495026 58.767805 
3.17 -42.970241 57.569387 -0.58991224 152.45174 -0.58991224 152.45174 -42.970241 57.569387 
3.18 -42.483109 56.307897 -0.5913822 150.66199 -0.5913822 150.66199 -42.483109 56.307897 
3.19 -42.02974 54.994069 -0.5928526 148.87223 -0.5928526 148.87223 -42.02974 54.994069 
3.2 -41.60686 53.636366 -0.59432335 147.08247 -0.59432335 147.08247 -41.60686 53.636366 
3.21 -41.211693 52.241552 -0.59579436 145.29271 -0.59579436 145.29271 -41.211693 52.241552 
3.22 -40.841863 50.815093 -0.59726552 143.50296 -0.59726552 143.50296 -40.841863 50.815093 
3.23 -40.495329 49.361458 -0.59873671 141.7132 -0.59873671 141.7132 -40.495329 49.361458 
3.24 -40.170319 47.884337 -0.60020784 139.92344 -0.60020784 139.92344 -40.170319 47.884337 
3.25 -39.865293 46.386803 -0.60167879 138.13369 -0.60167879 138.13369 -39.865293 46.386803 
3.26 -39.578901 44.871437 -0.60314945 136.34394 -0.60314945 136.34394 -39.578901 44.871437 
3.27 -39.309957 43.340427 -0.6046197 134.55418 -0.6046197 134.55418 -39.309957 43.340427 
3.28 -39.057415 41.795637 -0.60608944 132.76443 -0.60608944 132.76443 -39.057415 41.795637 