! AWR Design Environment (18789) Tue Jul  1 17:10:25 2025
! Document = 'lpf'
! nPorts: 2, nXvals: 400

# GHz S DB R 50
!Freq DBS11 AngS11 DBS21 AngS21 DBS12 AngS12 DBS22 AngS22 
0.01 -38.685716 88.393762 -0.00058781695 -1.6062379 -0.00058781695 -1.6062379 -38.685716 88.393762 
0.02 -32.671513 86.788016 -0.002348283 -3.2119838 -0.002348283 -3.2119838 -32.671513 86.788016 
0.03 -29.160343 85.183251 -0.0052724644 -4.8167488 -0.0052724644 -4.8167488 -29.160343 85.183251 
0.04 -26.676471 83.57995 -0.0093455407 -6.4200501 -0.0093455407 -6.4200501 -26.676471 83.57995 
0.05 -24.757408 81.978586 -0.014546907 -8.0214142 -0.014546907 -8.0214142 -24.757408 81.978586 
0.06 -23.197137 80.379621 -0.020850317 -9.6203795 -0.020850317 -9.6203795 -23.197137 80.379621 
0.07 -21.885753 78.783501 -0.028224059 -11.216499 -0.028224059 -11.216499 -21.885753 78.783501 
0.08 -20.757637 77.190655 -0.036631174 -12.809345 -0.036631174 -12.809345 -20.757637 77.190655 
0.09 -19.770457 75.601493 -0.046029696 -14.398507 -0.046029696 -14.398507 -19.770457 75.601493 
0.1 -18.895293 74.016401 -0.056372933 -15.983599 -0.056372933 -15.983599 -18.895293 74.016401 
0.11 -18.11151 72.435741 -0.067609764 -17.564259 -0.067609764 -17.564259 -18.11151 72.435741 
0.12 -17.403861 70.859848 -0.079684962 -19.140152 -0.079684962 -19.140152 -17.403861 70.859848 
0.13 -16.760757 69.28903 -0.092539538 -20.71097 -0.092539538 -20.71097 -16.760757 69.28903 
0.14 -16.173183 67.723564 -0.10611109 -22.276436 -0.10611109 -22.276436 -16.173183 67.723564 
0.15 -15.633981 66.163696 -0.12033419 -23.836304 -0.12033419 -23.836304 -15.633981 66.163696 
0.16 -15.137376 64.609641 -0.13514073 -25.390359 -0.13514073 -25.390359 -15.137376 64.609641 
0.17 -14.678637 63.061579 -0.15046031 -26.938421 -0.15046031 -26.938421 -14.678637 63.061579 
0.18 -14.253839 61.519658 -0.16622064 -28.480342 -0.16622064 -28.480342 -14.253839 61.519658 
0.19 -13.859691 59.983993 -0.18234789 -30.016007 -0.18234789 -30.016007 -13.859691 59.983993 
0.2 -13.493403 58.454661 -0.19876708 -31.545339 -0.19876708 -31.545339 -13.493403 58.454661 
0.21 -13.152594 56.931708 -0.2154024 -33.068292 -0.2154024 -33.068292 -13.152594 56.931708 
0.22 -12.835211 55.415144 -0.23217765 -34.584856 -0.23217765 -34.584856 -12.835211 55.415144 
0.23 -12.539475 53.904945 -0.2490165 -36.095055 -0.2490165 -36.095055 -12.539475 53.904945 
0.24 -12.263837 52.401056 -0.26584286 -37.598944 -0.26584286 -37.598944 -12.263837 52.401056 
0.25 -12.006935 50.903385 -0.28258117 -39.096615 -0.28258117 -39.096615 -12.006935 50.903385 
0.26 -11.767575 49.41181 -0.29915675 -40.58819 -0.29915675 -40.58819 -11.767575 49.41181 
0.27 -11.544697 47.926177 -0.31549602 -42.073823 -0.31549602 -42.073823 -11.544697 47.926177 
0.28 -11.337365 46.446303 -0.33152682 -43.553697 -0.33152682 -43.553697 -11.337365 46.446303 
0.29 -11.144746 44.971971 -0.34717864 -45.028029 -0.34717864 -45.028029 -11.144746 44.971971 
0.3 -10.966098 43.502938 -0.36238285 -46.497062 -0.36238285 -46.497062 -10.966098 43.502938 
0.31 -10.800762 42.038935 -0.37707294 -47.961065 -0.37707294 -47.961065 -10.800762 42.038935 
0.32 -10.648149 40.579661 -0.39118471 -49.420339 -0.39118471 -49.420339 -10.648149 40.579661 
0.33 -10.507735 39.124795 -0.4046565 -50.875205 -0.4046565 -50.875205 -10.507735 39.124795 
0.34 -10.379057 37.673987 -0.41742932 -52.326013 -0.41742932 -52.326013 -10.379057 37.673987 
0.35 -10.261701 36.226866 -0.42944703 -53.773134 -0.42944703 -53.773134 -10.261701 36.226866 
0.36 -10.155307 34.783038 -0.44065653 -55.216962 -0.44065653 -55.216962 -10.155307 34.783038 
0.37 -10.059554 33.342088 -0.45100787 -56.657912 -0.45100787 -56.657912 -10.059554 33.342088 
0.38 -9.9741698 31.903582 -0.46045443 -58.096418 -0.46045443 -58.096418 -9.9741698 31.903582 
0.39 -9.8989167 30.467065 -0.468953 -59.532935 -0.468953 -59.532935 -9.8989167 30.467065 
0.4 -9.8335969 29.032065 -0.47646393 -60.967935 -0.47646393 -60.967935 -9.8335969 29.032065 
0.41 -9.7780482 27.598096 -0.48295126 -62.401904 -0.48295126 -62.401904 -9.7780482 27.598096 
0.42 -9.7321427 26.164652 -0.48838282 -63.835348 -0.48838282 -63.835348 -9.7321427 26.164652 
0.43 -9.6957864 24.731217 -0.49273032 -65.268783 -0.49273032 -65.268783 -9.6957864 24.731217 
0.44 -9.6689184 23.297259 -0.4959695 -66.702741 -0.4959695 -66.702741 -9.6689184 23.297259 
0.45 -9.6515105 21.862236 -0.49808021 -68.137764 -0.49808021 -68.137764 -9.6515105 21.862236 
0.46 -9.643567 20.425594 -0.49904651 -69.574406 -0.49904651 -69.574406 -9.643567 20.425594 
0.47 -9.6451253 18.986769 -0.49885679 -71.013231 -0.49885679 -71.013231 -9.6451253 18.986769 
0.48 -9.6562563 17.545191 -0.49750384 -72.454809 -0.49750384 -72.454809 -9.6562563 17.545191 
0.49 -9.677065 16.10028 -0.49498498 -73.89972 -0.49498498 -73.89972 -9.677065 16.10028 
0.5 -9.7076919 14.651452 -0.49130216 -75.348548 -0.49130216 -75.348548 -9.7076919 14.651452 
0.51 -9.7483145 13.198119 -0.48646202 -76.801881 -0.48646202 -76.801881 -9.7483145 13.198119 
0.52 -9.7991491 11.73969 -0.48047604 -78.26031 -0.48047604 -78.26031 -9.7991491 11.73969 
0.53 -9.8604529 10.275572 -0.47336059 -79.724428 -0.47336059 -79.724428 -9.8604529 10.275572 
0.54 -9.9325268 8.8051716 -0.46513705 -81.194828 -0.46513705 -81.194828 -9.9325268 8.8051716 
0.55 -10.015719 7.3278995 -0.45583186 -82.6721 -0.45583186 -82.6721 -10.015719 7.3278995 
0.56 -10.110428 5.8431688 -0.44547665 -84.156831 -0.44547665 -84.156831 -10.110428 5.8431688 
0.57 -10.217109 4.3503987 -0.43410828 -85.649601 -0.43410828 -85.649601 -10.217109 4.3503987 
0.58 -10.336276 2.8490161 -0.42176889 -87.150984 -0.42176889 -87.150984 -10.336276 2.8490161 
0.59 -10.468511 1.338458 -0.40850599 -88.661542 -0.40850599 -88.661542 -10.468511 1.338458 
0.6 -10.614471 -0.18182654 -0.39437247 -90.181827 -0.39437247 -90.181827 -10.614471 -0.18182654 
0.61 -10.774898 -1.7123735 -0.3794266 -91.712374 -0.3794266 -91.712374 -10.774898 -1.7123735 
0.62 -10.950624 -3.2537018 -0.36373206 -93.253702 -0.36373206 -93.253702 -10.950624 -3.2537018 
0.63 -11.142593 -4.8063104 -0.34735789 -94.80631 -0.34735789 -94.80631 -11.142593 -4.8063104 
0.64 -11.351868 -6.3706752 -0.33037843 -96.370675 -0.33037843 -96.370675 -11.351868 -6.3706752 
0.65 -11.579656 -7.9472466 -0.31287325 -97.947247 -0.31287325 -97.947247 -11.579656 -7.9472466 
0.66 -11.827327 -9.536446 -0.29492698 -99.536446 -0.29492698 -99.536446 -11.827327 -9.536446 
0.67 -12.096444 -11.138663 -0.27662918 -101.13866 -0.27662918 -101.13866 -12.096444 -11.138663 
0.68 -12.388797 -12.754251 -0.25807408 -102.75425 -0.25807408 -102.75425 -12.388797 -12.754251 
0.69 -12.706451 -14.383527 -0.23936038 -104.38353 -0.23936038 -104.38353 -12.706451 -14.383527 
0.7 -13.051797 -16.026764 -0.22059083 -106.02676 -0.22059083 -106.02676 -13.051797 -16.026764 
0.71 -13.427628 -17.68419 -0.20187195 -107.68419 -0.20187195 -107.68419 -13.427628 -17.68419 
0.72 -13.837233 -19.355985 -0.1833135 -109.35598 -0.1833135 -109.35598 -13.837233 -19.355985 
0.73 -14.284519 -21.042278 -0.16502801 -111.04228 -0.16502801 -111.04228 -14.284519 -21.042278 
0.74 -14.774181 -22.743143 -0.14713023 -112.74314 -0.14713023 -112.74314 -14.774181 -22.743143 
0.75 -15.311931 -24.458597 -0.12973641 -114.4586 -0.12973641 -114.4586 -15.311931 -24.458597 
0.76 -15.904815 -26.188595 -0.11296365 -116.1886 -0.11296365 -116.1886 -15.904815 -26.188595 
0.77 -16.561676 -27.933033 -0.096929096 -117.93303 -0.096929096 -117.93303 -16.561676 -27.933033 
0.78 -17.293825 -29.691742 -0.081749078 -119.69174 -0.081749078 -119.69174 -17.293825 -29.691742 
0.79 -18.116072 -31.464487 -0.067538219 -121.46449 -0.067538219 -121.46449 -18.116072 -31.464487 
0.8 -19.048354 -33.25097 -0.054408464 -123.25097 -0.054408464 -123.25097 -19.048354 -33.25097 
0.81 -20.118435 -35.050824 -0.042468071 -125.05082 -0.042468071 -125.05082 -20.118435 -35.050824 
0.82 -21.366666 -36.863619 -0.03182056 -126.86362 -0.03182056 -126.86362 -21.366666 -36.863619 
0.83 -22.855029 -38.688861 -0.022563639 -128.68886 -0.022563639 -128.68886 -22.855029 -38.688861 
0.84 -24.686107 -40.525994 -0.014788116 -130.52599 -0.014788116 -130.52599 -24.686107 -40.525994 
0.85 -27.048875 -42.374405 -0.0085768068 -132.3744 -0.0085768068 -132.3744 -27.048875 -42.374405 
0.86 -30.355483 -44.233422 -0.0040034658 -134.23342 -0.0040034658 -134.23342 -30.355483 -44.233422 
0.87 -35.840927 -46.102328 -0.0011317439 -136.10233 -0.0011317439 -136.10233 -35.840927 -46.102328 
0.88 -54.855744 -47.980357 -1.4197458e-05 -137.98036 -1.4197458e-05 -137.98036 -54.855744 -47.980357 
0.89 -37.981133 130.13329 -0.00069136209 -139.86671 -0.00069136209 -139.86671 -37.981133 130.13329 
0.9 -31.340294 128.23945 -0.0031909092 -141.76055 -0.0031909092 -141.76055 -31.340294 128.23945 
0.91 -27.615445 126.33898 -0.0075268998 -143.66102 -0.0075268998 -143.66102 -27.615445 126.33898 
0.92 -25.017755 124.43275 -0.013699149 -145.56725 -0.013699149 -145.56725 -25.017755 124.43275 
0.93 -23.025545 122.52164 -0.021692717 -147.47836 -0.021692717 -147.47836 -23.025545 122.52164 
0.94 -21.413566 120.60652 -0.031477529 -149.39348 -0.031477529 -149.39348 -21.413566 120.60652 
0.95 -20.063823 118.68826 -0.043008139 -151.31174 -0.043008139 -151.31174 -20.063823 118.68826 
0.96 -18.906735 116.76768 -0.056223638 -153.23232 -0.056223638 -153.23232 -18.906735 116.76768 
0.97 -17.897818 114.8456 -0.071047713 -155.1544 -0.071047713 -155.1544 -17.897818 114.8456 
0.98 -17.006904 112.92278 -0.087388842 -157.07722 -0.087388842 -157.07722 -17.006904 112.92278 
0.99 -16.212601 110.99991 -0.10514064 -159.00009 -0.10514064 -159.00009 -16.212601 110.99991 
1 -15.499188 109.07765 -0.12418234 -160.92235 -0.12418234 -160.92235 -15.499188 109.07765 
1.01 -14.854781 107.15656 -0.14437938 -162.84344 -0.14437938 -162.84344 -14.854781 107.15656 
1.02 -14.270185 105.23713 -0.16558414 -164.76287 -0.16558414 -164.76287 -14.270185 105.23713 
1.03 -13.738144 103.31975 -0.18763676 -166.68025 -0.18763676 -166.68025 -13.738144 103.31975 
1.04 -13.252846 101.40472 -0.21036603 -168.59528 -0.21036603 -168.59528 -13.252846 101.40472 
1.05 -12.809565 99.492231 -0.23359039 -170.50777 -0.23359039 -170.50777 -12.809565 99.492231 
1.06 -12.404427 97.582353 -0.257119 -172.41765 -0.257119 -172.41765 -12.404427 97.582353 
1.07 -12.034222 95.67504 -0.2807528 -174.32496 -0.2807528 -174.32496 -12.034222 95.67504 
1.08 -11.696282 93.770114 -0.30428569 -176.22989 -0.30428569 -176.22989 -11.696282 93.770114 
1.09 -11.388378 91.867265 -0.32750572 -178.13273 -0.32750572 -178.13273 -11.388378 91.867265 
1.1 -11.10865 89.96604 -0.35019624 179.96604 -0.35019624 179.96604 -11.10865 89.96604 
1.11 -10.855552 88.065841 -0.37213719 178.06584 -0.37213719 178.06584 -10.855552 88.065841 
1.12 -10.627813 86.165916 -0.39310637 176.16592 -0.39310637 176.16592 -10.627813 86.165916 
1.13 -10.424403 84.265355 -0.41288066 174.26535 -0.41288066 174.26535 -10.424403 84.265355 
1.14 -10.244513 82.363084 -0.43123746 172.36308 -0.43123746 172.36308 -10.244513 82.363084 
1.15 -10.087543 80.457858 -0.44795599 170.45786 -0.44795599 170.45786 -10.087543 80.457858 
1.16 -9.9530873 78.548252 -0.46281885 168.54825 -0.46281885 168.54825 -9.9530873 78.548252 
1.17 -9.8409379 76.632659 -0.47561352 166.63266 -0.47561352 166.63266 -9.8409379 76.632659 
1.18 -9.7510823 74.709275 -0.48613409 164.70928 -0.48613409 164.70928 -9.7510823 74.709275 
1.19 -9.6837123 72.776098 -0.49418318 162.7761 -0.49418318 162.7761 -9.6837123 72.776098 
1.2 -9.6392378 70.83091 -0.49957398 160.83091 -0.49957398 160.83091 -9.6392378 70.83091 
1.21 -9.6183059 68.871275 -0.50213267 158.87127 -0.50213267 158.87127 -9.6183059 68.871275 
1.22 -9.6218281 66.894521 -0.50170115 156.89452 -0.50170115 156.89452 -9.6218281 66.894521 
1.23 -9.6510175 64.897733 -0.49814012 154.89773 -0.49814012 154.89773 -9.6510175 64.897733 
1.24 -9.7074361 62.877738 -0.4913328 152.87774 -0.4913328 152.87774 -9.7074361 62.877738 
1.25 -9.7930582 60.831094 -0.48118915 150.83109 -0.48118915 150.83109 -9.7930582 60.831094 
1.26 -9.9103532 58.754073 -0.46765085 148.75407 -0.46765085 148.75407 -9.9103532 58.754073 
1.27 -10.062395 56.642657 -0.45069716 146.64266 -0.45069716 146.64266 -10.062395 56.642657 
1.28 -10.253007 54.49252 -0.43035173 144.49252 -0.43035173 144.49252 -10.253007 54.49252 
1.29 -10.486961 52.299022 -0.40669057 142.29902 -0.40669057 142.29902 -10.486961 52.299022 
1.3 -10.770248 50.057207 -0.3798513 140.05721 -0.3798513 140.05721 -10.770248 50.057207 
1.31 -11.110464 47.761804 -0.35004391 137.7618 -0.35004391 137.7618 -11.110464 47.761804 
1.32 -11.517359 45.407236 -0.31756294 135.40724 -0.31756294 135.40724 -11.517359 45.407236 
1.33 -12.003659 42.987642 -0.28280151 132.98764 -0.28280151 132.98764 -12.003659 42.987642 
1.34 -12.586336 40.496916 -0.24626679 130.49692 -0.24626679 130.49692 -12.586336 40.496916 
1.35 -13.288639 37.928762 -0.20859723 127.92876 -0.20859723 127.92876 -13.288639 37.928762 
1.36 -14.14355 35.276779 -0.1705809 125.27678 -0.1705809 125.27678 -14.14355 35.276779 
1.37 -15.200045 32.534575 -0.13317464 122.53458 -0.13317464 122.53458 -15.200045 32.534575 
1.38 -16.535444 29.69592 -0.097522982 119.69592 -0.097522982 119.69592 -16.535444 29.69592 
1.39 -18.28278 26.754944 -0.064975715 116.75494 -0.064975715 116.75494 -18.28278 26.754944 
1.4 -20.702406 23.706387 -0.037102015 113.70639 -0.037102015 113.70639 -20.702406 23.706387 
1.41 -24.427001 20.545901 -0.015698888 110.5459 -0.015698888 110.5459 -24.427001 20.545901 
1.42 -31.921928 17.270406 -0.0027908148 107.27041 -0.0027908148 107.27041 -31.921928 17.270406 
1.43 -38.474376 -166.12152 -0.00061713129 103.87848 -0.00061713129 103.87848 -38.474376 -166.12152 
1.44 -25.737761 -169.6292 -0.011603481 100.3708 -0.011603481 100.3708 -25.737761 -169.6292 
1.45 -20.563405 -173.24944 -0.038314057 96.750558 -0.038314057 96.750558 -20.563405 -173.24944 
1.46 -17.208722 -176.97618 -0.083382441 93.023824 -0.083382441 93.023824 -17.208722 -176.97618 
1.47 -14.708226 179.19987 -0.14942091 89.199874 -0.14942091 89.199874 -14.708226 179.19987 
1.48 -12.71439 175.29131 -0.238911 85.291311 -0.238911 85.291311 -12.71439 175.29131 
1.49 -11.062645 171.31402 -0.35408179 81.314019 -0.35408179 81.314019 -11.062645 171.31402 
1.5 -9.6621768 167.28687 -0.49678579 77.286867 -0.49678579 77.286867 -9.6621768 167.28687 
1.51 -8.457482 163.23118 -0.66838524 73.231179 -0.66838524 73.231179 -8.457482 163.23118 
1.52 -7.4119149 159.16996 -0.86966212 69.169962 -0.86966212 69.169962 -7.4119149 159.16996 
1.53 -6.4996648 155.12698 -1.1007638 65.126981 -1.1007638 65.126981 -6.4996648 155.12698 
1.54 -5.7014837 151.12575 -1.3611919 61.125753 -1.3611919 61.125753 -5.7014837 151.12575 
1.55 -5.0022712 147.18856 -1.6498354 57.188563 -1.6498354 57.188563 -5.0022712 147.18856 
1.56 -4.3896576 143.33561 -1.9650446 53.335615 -1.9650446 53.335615 -4.3896576 143.33561 
1.57 -3.8531589 139.58437 -2.3047341 49.584369 -2.3047341 49.584369 -3.8531589 139.58437 
1.58 -3.3836699 135.94914 -2.6665035 45.949136 -2.6665035 45.949136 -3.3836699 135.94914 
1.59 -2.9731589 132.4409 -3.0477614 42.440903 -3.0477614 42.440903 -2.9731589 132.4409 
1.6 -2.6144837 129.06739 -3.4458418 39.067388 -3.4458418 39.067388 -2.6144837 129.06739 
1.61 -2.3012752 125.83327 -3.8581043 35.833268 -3.8581043 35.833268 -2.3012752 125.83327 
1.62 -2.0278585 122.74052 -4.2820143 32.74052 -4.2820143 32.74052 -2.0278585 122.74052 
1.63 -1.7891921 119.78883 -4.7152001 29.788829 -4.7152001 29.788829 -1.7891921 119.78883 
1.64 -1.580815 116.97602 -5.1554911 26.976019 -5.1554911 26.976019 -1.580815 116.97602 
1.65 -1.3987975 114.29847 -5.6009375 24.298466 -5.6009375 24.298466 -1.3987975 114.29847 
1.66 -1.2396923 111.75147 -6.0498158 21.751474 -6.0498158 21.751474 -1.2396923 111.75147 
1.67 -1.1004871 109.3296 -6.5006241 19.329599 -6.5006241 19.329599 -1.1004871 109.3296 
1.68 -0.97855869 107.02693 -6.9520705 17.02693 -6.9520705 17.02693 -0.97855869 107.02693 
1.69 -0.8716285 104.83731 -7.4030566 14.837305 -7.4030566 14.837305 -0.8716285 104.83731 
1.7 -0.77772199 102.75449 -7.8526589 12.754488 -7.8526589 12.754488 -0.77772199 102.75449 
1.71 -0.69513062 100.7723 -8.3001093 10.772297 -8.3001093 10.772297 -0.69513062 100.7723 
1.72 -0.62237766 98.884704 -8.7447763 8.8847036 -8.7447763 8.8847036 -0.62237766 98.884704 
1.73 -0.55818751 97.085897 -9.1861469 7.0858971 -9.1861469 7.0858971 -0.55818751 97.085897 
1.74 -0.50145853 95.370333 -9.6238099 5.3703325 -9.6238099 5.3703325 -0.50145853 95.370333 
1.75 -0.45123918 93.732755 -10.057441 3.732755 -10.057441 3.732755 -0.45123918 93.732755 
1.76 -0.40670721 92.168214 -10.486791 2.1682137 -10.486791 2.1682137 -0.40670721 92.168214 
1.77 -0.36715161 90.672065 -10.911671 0.67206529 -10.911671 0.67206529 -0.36715161 90.672065 
1.78 -0.33195697 89.239969 -11.331946 -0.76003066 -11.331946 -0.76003066 -0.33195697 89.239969 
1.79 -0.30059012 87.86788 -11.747524 -2.1321203 -11.747524 -2.1321203 -0.30059012 87.86788 
1.8 -0.2725885 86.552032 -12.158349 -3.447968 -12.158349 -3.447968 -0.2725885 86.552032 
1.81 -0.24755034 85.288929 -12.564395 -4.7110712 -12.564395 -4.7110712 -0.24755034 85.288929 
1.82 -0.22512616 84.075325 -12.96566 -5.9246754 -12.96566 -5.9246754 -0.22512616 84.075325 
1.83 -0.20501148 82.908209 -13.362164 -7.091791 -13.362164 -7.091791 -0.20501148 82.908209 
1.84 -0.18694066 81.784791 -13.75394 -8.2152089 -13.75394 -8.2152089 -0.18694066 81.784791 
1.85 -0.17068159 80.702483 -14.141038 -9.2975166 -14.141038 -9.2975166 -0.17068159 80.702483 
1.86 -0.15603108 79.658887 -14.523514 -10.341113 -14.523514 -10.341113 -0.15603108 79.658887 
1.87 -0.14281102 78.651778 -14.901436 -11.348222 -14.901436 -11.348222 -0.14281102 78.651778 
1.88 -0.13086503 77.679092 -15.274875 -12.320908 -15.274875 -12.320908 -0.13086503 77.679092 
1.89 -0.12005555 76.738914 -15.64391 -13.261086 -15.64391 -13.261086 -0.12005555 76.738914 
1.9 -0.11026143 75.829463 -16.008621 -14.170537 -16.008621 -14.170537 -0.11026143 75.829463 
1.91 -0.10137577 74.949088 -16.369091 -15.050912 -16.369091 -15.050912 -0.10137577 74.949088 
1.92 -0.093304111 74.096249 -16.725404 -15.903751 -16.725404 -15.903751 -0.093304111 74.096249 
1.93 -0.085962841 73.269515 -17.077646 -16.730485 -17.077646 -16.730485 -0.085962841 73.269515 
1.94 -0.07927786 72.467553 -17.425903 -17.532447 -17.425903 -17.532447 -0.07927786 72.467553 
1.95 -0.073183383 71.689118 -17.770259 -18.310882 -17.770259 -18.310882 -0.073183383 71.689118 
1.96 -0.067620923 70.93305 -18.110799 -19.06695 -18.110799 -19.06695 -0.067620923 70.93305 
1.97 -0.06253841 70.198266 -18.447606 -19.801734 -18.447606 -19.801734 -0.06253841 70.198266 
1.98 -0.057889418 69.483751 -18.780764 -20.516249 -18.780764 -20.516249 -0.057889418 69.483751 
1.99 -0.053632493 68.788556 -19.110352 -21.211444 -19.110352 -21.211444 -0.053632493 68.788556 
2 -0.049730576 68.111795 -19.43645 -21.888205 -19.43645 -21.888205 -0.049730576 68.111795 
2.01 -0.046150488 67.452633 -19.759135 -22.547367 -19.759135 -22.547367 -0.046150488 67.452633 
2.02 -0.042862485 66.81029 -20.078483 -23.18971 -20.078483 -23.18971 -0.042862485 66.81029 
2.03 -0.039839871 66.184031 -20.394569 -23.815969 -20.394569 -23.815969 -0.039839871 66.184031 
2.04 -0.037058653 65.573166 -20.707463 -24.426834 -20.707463 -24.426834 -0.037058653 65.573166 
2.05 -0.034497241 64.977046 -21.017237 -25.022954 -21.017237 -25.022954 -0.034497241 64.977046 
2.06 -0.032136187 64.39506 -21.323958 -25.60494 -21.323958 -25.60494 -0.032136187 64.39506 
2.07 -0.029957946 63.826631 -21.627693 -26.173369 -21.627693 -26.173369 -0.029957946 63.826631 
2.08 -0.027946679 63.271215 -21.928507 -26.728785 -21.928507 -26.728785 -0.027946679 63.271215 
2.09 -0.026088065 62.7283 -22.226462 -27.2717 -22.226462 -27.2717 -0.026088065 62.7283 
2.1 -0.024369144 62.1974 -22.521619 -27.8026 -22.521619 -27.8026 -0.024369144 62.1974 
2.11 -0.022778175 61.678056 -22.814038 -28.321944 -22.814038 -28.321944 -0.022778175 61.678056 
2.12 -0.02130451 61.169835 -23.103776 -28.830165 -23.103776 -28.830165 -0.02130451 61.169835 
2.13 -0.019938481 60.672324 -23.390888 -29.327676 -23.390888 -29.327676 -0.019938481 60.672324 
2.14 -0.018671304 60.185135 -23.675429 -29.814865 -23.675429 -29.814865 -0.018671304 60.185135 
2.15 -0.017494987 59.707896 -23.957452 -30.292104 -23.957452 -30.292104 -0.017494987 59.707896 
2.16 -0.016402253 59.240257 -24.237007 -30.759743 -24.237007 -30.759743 -0.016402253 59.240257 
2.17 -0.015386472 58.781884 -24.514143 -31.218116 -24.514143 -31.218116 -0.015386472 58.781884 
2.18 -0.014441595 58.33246 -24.78891 -31.66754 -24.78891 -31.66754 -0.014441595 58.33246 
2.19 -0.013562097 57.891684 -25.061354 -32.108316 -25.061354 -32.108316 -0.013562097 57.891684 
2.2 -0.012742931 57.459266 -25.33152 -32.540734 -25.33152 -32.540734 -0.012742931 57.459266 
2.21 -0.011979482 57.034935 -25.599451 -32.965065 -25.599451 -32.965065 -0.011979482 57.034935 
2.22 -0.011267522 56.618428 -25.865192 -33.381572 -25.865192 -33.381572 -0.011267522 56.618428 
2.23 -0.010603181 56.209496 -26.128782 -33.790504 -26.128782 -33.790504 -0.010603181 56.209496 
2.24 -0.0099829076 55.807903 -26.390263 -34.192097 -26.390263 -34.192097 -0.0099829076 55.807903 
2.25 -0.0094034458 55.41342 -26.649674 -34.58658 -26.649674 -34.58658 -0.0094034458 55.41342 
2.26 -0.0088618035 55.02583 -26.907052 -34.97417 -26.907052 -34.97417 -0.0088618035 55.02583 
2.27 -0.0083552317 54.644927 -27.162435 -35.355073 -27.162435 -35.355073 -0.0083552317 54.644927 
2.28 -0.0078812017 54.270511 -27.415859 -35.729489 -27.415859 -35.729489 -0.0078812017 54.270511 
2.29 -0.0074373863 53.902392 -27.667358 -36.097608 -27.667358 -36.097608 -0.0074373863 53.902392 
2.3 -0.0070216421 53.540388 -27.916967 -36.459612 -27.916967 -36.459612 -0.0070216421 53.540388 
2.31 -0.0066319934 53.184325 -28.164718 -36.815675 -28.164718 -36.815675 -0.0066319934 53.184325 
2.32 -0.0062666181 52.834034 -28.410644 -37.165966 -28.410644 -37.165966 -0.0062666181 52.834034 
2.33 -0.0059238342 52.489355 -28.654776 -37.510645 -28.654776 -37.510645 -0.0059238342 52.489355 
2.34 -0.0056020886 52.150133 -28.897144 -37.849867 -28.897144 -37.849867 -0.0056020886 52.150133 
2.35 -0.0052999457 51.816222 -29.137779 -38.183778 -29.137779 -38.183778 -0.0052999457 51.816222 
2.36 -0.0050160781 51.487477 -29.376708 -38.512523 -29.376708 -38.512523 -0.0050160781 51.487477 
2.37 -0.0047492574 51.163762 -29.61396 -38.836238 -29.61396 -38.836238 -0.0047492574 51.163762 
2.38 -0.0044983463 50.844946 -29.849563 -39.155054 -29.849563 -39.155054 -0.0044983463 50.844946 
2.39 -0.0042622911 50.530901 -30.083543 -39.469099 -30.083543 -39.469099 -0.0042622911 50.530901 
2.4 -0.0040401148 50.221506 -30.315926 -39.778494 -30.315926 -39.778494 -0.0040401148 50.221506 
2.41 -0.0038309116 49.916644 -30.546737 -40.083356 -30.546737 -40.083356 -0.0038309116 49.916644 
2.42 -0.0036338405 49.6162 -30.776001 -40.3838 -30.776001 -40.3838 -0.0036338405 49.6162 
2.43 -0.0034481206 49.320065 -31.003743 -40.679935 -31.003743 -40.679935 -0.0034481206 49.320065 
2.44 -0.0032730264 49.028135 -31.229984 -40.971865 -31.229984 -40.971865 -0.0032730264 49.028135 
2.45 -0.0031078834 48.740307 -31.45475 -41.259693 -31.45475 -41.259693 -0.0031078834 48.740307 
2.46 -0.0029520643 48.456485 -31.678061 -41.543515 -31.678061 -41.543515 -0.0029520643 48.456485 
2.47 -0.0028049853 48.176572 -31.89994 -41.823428 -31.89994 -41.823428 -0.0028049853 48.176572 
2.48 -0.0026661028 47.900477 -32.120407 -42.099523 -32.120407 -42.099523 -0.0026661028 47.900477 
2.49 -0.0025349104 47.628113 -32.339484 -42.371887 -32.339484 -42.371887 -0.0025349104 47.628113 
2.5 -0.0024109361 47.359394 -32.557192 -42.640606 -32.557192 -42.640606 -0.0024109361 47.359394 
2.51 -0.0022937398 47.094236 -32.773548 -42.905764 -32.773548 -42.905764 -0.0022937398 47.094236 
2.52 -0.0021829109 46.832561 -32.988574 -43.167439 -32.988574 -43.167439 -0.0021829109 46.832561 
2.53 -0.0020780661 46.57429 -33.202288 -43.42571 -33.202288 -43.42571 -0.0020780661 46.57429 
2.54 -0.0019788477 46.319349 -33.414709 -43.680651 -33.414709 -43.680651 -0.0019788477 46.319349 
2.55 -0.0018849211 46.067666 -33.625854 -43.932334 -33.625854 -43.932334 -0.0018849211 46.067666 
2.56 -0.0017959739 45.81917 -33.835741 -44.18083 -33.835741 -44.18083 -0.0017959739 45.81917 
2.57 -0.0017117138 45.573793 -34.044388 -44.426207 -34.044388 -44.426207 -0.0017117138 45.573793 
2.58 -0.0016318674 45.33147 -34.25181 -44.66853 -34.25181 -44.66853 -0.0016318674 45.33147 
2.59 -0.0015561788 45.092135 -34.458026 -44.907865 -34.458026 -44.907865 -0.0015561788 45.092135 
2.6 -0.0014844086 44.855728 -34.663051 -45.144272 -34.663051 -45.144272 -0.0014844086 44.855728 
2.61 -0.0014163321 44.622188 -34.8669 -45.377812 -34.8669 -45.377812 -0.0014163321 44.622188 
2.62 -0.0013517392 44.391457 -35.06959 -45.608543 -35.06959 -45.608543 -0.0013517392 44.391457 
2.63 -0.0012904326 44.163478 -35.271135 -45.836522 -35.271135 -45.836522 -0.0012904326 44.163478 
2.64 -0.0012322275 43.938196 -35.47155 -46.061804 -35.47155 -46.061804 -0.0012322275 43.938196 
2.65 -0.0011769504 43.715557 -35.67085 -46.284443 -35.67085 -46.284443 -0.0011769504 43.715557 
2.66 -0.0011244383 43.495511 -35.869049 -46.504489 -35.869049 -46.504489 -0.0011244383 43.495511 
2.67 -0.0010745385 43.278005 -36.066161 -46.721995 -36.066161 -46.721995 -0.0010745385 43.278005 
2.68 -0.0010271073 43.062991 -36.262199 -46.937009 -36.262199 -46.937009 -0.0010271073 43.062991 
2.69 -0.00098200964 42.850422 -36.457177 -47.149578 -36.457177 -47.149578 -0.00098200964 42.850422 
2.7 -0.00093911878 42.640251 -36.651107 -47.359749 -36.651107 -47.359749 -0.00093911878 42.640251 
2.71 -0.00089831538 42.432433 -36.844004 -47.567567 -36.844004 -47.567567 -0.00089831538 42.432433 
2.72 -0.00085948719 42.226925 -37.035879 -47.773075 -37.035879 -47.773075 -0.00085948719 42.226925 
2.73 -0.00082252862 42.023682 -37.226744 -47.976318 -37.226744 -47.976318 -0.00082252862 42.023682 
2.74 -0.00078734023 41.822664 -37.416612 -48.177336 -37.416612 -48.177336 -0.00078734023 41.822664 
2.75 -0.0007538284 41.623831 -37.605495 -48.376169 -37.605495 -48.376169 -0.0007538284 41.623831 
2.76 -0.00072190493 41.427142 -37.793404 -48.572858 -37.793404 -48.572858 -0.00072190493 41.427142 
2.77 -0.00069148671 41.23256 -37.98035 -48.76744 -37.98035 -48.76744 -0.00069148671 41.23256 
2.78 -0.00066249539 41.040047 -38.166346 -48.959953 -38.166346 -48.959953 -0.00066249539 41.040047 
2.79 -0.0006348571 40.849567 -38.351401 -49.150433 -38.351401 -49.150433 -0.0006348571 40.849567 
2.8 -0.00060850214 40.661083 -38.535526 -49.338917 -38.535526 -49.338917 -0.00060850214 40.661083 
2.81 -0.00058336475 40.474562 -38.718733 -49.525438 -38.718733 -49.525438 -0.00058336475 40.474562 
2.82 -0.00055938288 40.28997 -38.901031 -49.71003 -38.901031 -49.71003 -0.00055938288 40.28997 
2.83 -0.00053649793 40.107273 -39.082431 -49.892727 -39.082431 -49.892727 -0.00053649793 40.107273 
2.84 -0.00051465454 39.926439 -39.262942 -50.073561 -39.262942 -50.073561 -0.00051465454 39.926439 
2.85 -0.00049380044 39.747438 -39.442575 -50.252562 -39.442575 -50.252562 -0.00049380044 39.747438 
2.86 -0.00047388621 39.570238 -39.621339 -50.429762 -39.621339 -50.429762 -0.00047388621 39.570238 
2.87 -0.00045486513 39.394809 -39.799244 -50.605191 -39.799244 -50.605191 -0.00045486513 39.394809 
2.88 -0.00043669304 39.221123 -39.976299 -50.778877 -39.976299 -50.778877 -0.00043669304 39.221123 
2.89 -0.00041932816 39.049151 -40.152513 -50.950849 -40.152513 -50.950849 -0.00041932816 39.049151 
2.9 -0.00040273096 38.878864 -40.327894 -51.121136 -40.327894 -51.121136 -0.00040273096 38.878864 
2.91 -0.00038686402 38.710237 -40.502453 -51.289763 -40.502453 -51.289763 -0.00038686402 38.710237 
2.92 -0.00037169195 38.543242 -40.676197 -51.456758 -40.676197 -51.456758 -0.00037169195 38.543242 
2.93 -0.00035718119 38.377853 -40.849136 -51.622147 -40.849136 -51.622147 -0.00035718119 38.377853 
2.94 -0.00034329999 38.214045 -41.021277 -51.785955 -41.021277 -51.785955 -0.00034329999 38.214045 
2.95 -0.00033001825 38.051794 -41.192629 -51.948206 -41.192629 -51.948206 -0.00033001825 38.051794 
2.96 -0.00031730745 37.891074 -41.363199 -52.108926 -41.363199 -52.108926 -0.00031730745 37.891074 
2.97 -0.00030514054 37.731862 -41.532997 -52.268138 -41.532997 -52.268138 -0.00030514054 37.731862 
2.98 -0.0002934919 37.574136 -41.702029 -52.425864 -41.702029 -52.425864 -0.0002934919 37.574136 
2.99 -0.0002823372 37.417872 -41.870303 -52.582128 -41.870303 -52.582128 -0.0002823372 37.417872 
3 -0.00027165338 37.263048 -42.037828 -52.736952 -42.037828 -52.736952 -0.00027165338 37.263048 
3.01 -0.00026141855 37.109643 -42.20461 -52.890357 -42.20461 -52.890357 -0.00026141855 37.109643 
3.02 -0.00025161192 36.957635 -42.370657 -53.042365 -42.370657 -53.042365 -0.00025161192 36.957635 
3.03 -0.00024221379 36.807004 -42.535976 -53.192996 -42.535976 -53.192996 -0.00024221379 36.807004 
3.04 -0.0002332054 36.657729 -42.700574 -53.342271 -42.700574 -53.342271 -0.0002332054 36.657729 
3.05 -0.00022456897 36.50979 -42.864458 -53.49021 -42.864458 -53.49021 -0.00022456897 36.50979 
3.06 -0.00021628759 36.363168 -43.027635 -53.636832 -43.027635 -53.636832 -0.00021628759 36.363168 
3.07 -0.00020834519 36.217844 -43.190113 -53.782156 -43.190113 -53.782156 -0.00020834519 36.217844 
3.08 -0.00020072651 36.073798 -43.351896 -53.926202 -43.351896 -53.926202 -0.00020072651 36.073798 
3.09 -0.00019341701 35.931014 -43.512993 -54.068986 -43.512993 -54.068986 -0.00019341701 35.931014 
3.1 -0.0001864029 35.789471 -43.67341 -54.210529 -43.67341 -54.210529 -0.0001864029 35.789471 
3.11 -0.00017967105 35.649155 -43.833152 -54.350845 -43.833152 -54.350845 -0.00017967105 35.649155 