! AWR Design Environment (18789) Tue Jul  1 17:07:48 2025
! Document = 'hpf'
! nPorts: 2, nXvals: 400

# GHz S DB R 50
!Freq DBS11 AngS11 DBS21 AngS21 DBS12 AngS12 DBS22 AngS22 
0.01 9.6432747e-16 -0.44640716 -232.63184 89.553593 -232.63184 89.553593 9.6432747e-16 -0.44640716 
0.02 9.6432747e-16 -0.89285729 -202.5274 89.107143 -202.5274 89.107143 9.6432747e-16 -0.89285729 
0.03 0 -1.3393934 -184.91587 88.660607 -184.91587 88.660607 0 -1.3393934 
0.04 9.6432747e-16 -1.7860585 -172.41862 88.213942 -172.41862 88.213942 9.6432747e-16 -1.7860585 
0.05 -4.8216373e-16 -2.2328957 -162.72328 87.767104 -162.72328 87.767104 -4.8216373e-16 -2.2328957 
0.06 -9.6432747e-16 -2.6799483 -154.79986 87.320052 -154.79986 87.320052 -9.6432747e-16 -2.6799483 
0.07 -5.7859648e-15 -3.1272596 -148.09891 86.87274 -148.09891 86.87274 -5.7859648e-15 -3.1272596 
0.08 -2.6519005e-14 -3.574873 -142.29248 86.425127 -142.29248 86.425127 -2.6519005e-14 -3.574873 
0.09 -8.2932162e-14 -4.0228324 -137.16902 85.977168 -137.16902 85.977168 -8.389649e-14 -4.0228324 
0.1 -2.3915321e-13 -4.4711815 -132.58409 85.528818 -132.58409 85.528818 -2.3818888e-13 -4.4711815 
0.11 -6.2391987e-13 -4.9199645 -128.43467 85.080035 -128.43467 85.080035 -6.2391987e-13 -4.9199645 
0.12 -1.4903681e-12 -5.3692258 -124.64469 84.630774 -124.64469 84.630774 -1.4903681e-12 -5.3692258 
0.13 -3.3274119e-12 -5.8190099 -121.15638 84.18099 -121.15638 84.18099 -3.3274119e-12 -5.8190099 
0.14 -7.0034282e-12 -6.269362 -117.92483 83.730638 -117.92483 83.730638 -7.0034282e-12 -6.269362 
0.15 -1.4007339e-11 -6.7203273 -114.91445 83.279673 -114.91445 83.279673 -1.4007339e-11 -6.7203273 
0.16 -2.6799142e-11 -7.1719515 -112.09653 82.828049 -112.09653 82.828049 -2.6800107e-11 -7.1719515 
0.17 -4.9320528e-11 -7.6242806 -109.4476 82.375719 -109.4476 82.375719 -4.9320528e-11 -7.6242806 
0.18 -8.7693047e-11 -8.0773613 -106.94821 81.922639 -106.94821 81.922639 -8.7691118e-11 -8.0773613 
0.19 -1.5120896e-10 -8.5312405 -104.58208 81.46876 -104.58208 81.46876 -1.5120992e-10 -8.5312405 
0.2 -2.5365477e-10 -8.9859656 -102.33542 81.014034 -102.33542 81.014034 -2.536538e-10 -8.9859656 
0.21 -4.1508463e-10 -9.4415847 -100.19647 80.558415 -100.19647 80.558415 -4.1508656e-10 -9.4415847 
0.22 -6.6416222e-10 -9.8981463 -98.155098 80.101854 -98.155098 80.101854 -6.6416318e-10 -9.8981463 
0.23 -1.0411902e-09 -10.3557 -96.202542 79.6443 -96.202542 79.6443 -1.0411911e-09 -10.3557 
0.24 -1.6020276e-09 -10.814294 -94.331144 79.185706 -94.331144 79.185706 -1.6020266e-09 -10.814294 
0.25 -2.4230656e-09 -11.273981 -92.53419 78.726019 -92.53419 78.726019 -2.4230676e-09 -11.273981 
0.26 -3.6075216e-09 -11.734811 -90.805753 78.265189 -90.805753 78.265189 -3.6075225e-09 -11.734811 
0.27 -5.2933015e-09 -12.196835 -89.140578 77.803165 -89.140578 77.803165 -5.2932995e-09 -12.196835 
0.28 -7.6627785e-09 -12.660107 -87.533981 77.339893 -87.533981 77.339893 -7.6627789e-09 -12.660107 
0.29 -1.0954869e-08 -13.12468 -85.981771 76.87532 -85.981771 76.87532 -1.0954869e-08 -13.12468 
0.3 -1.5479818e-08 -13.590609 -84.480185 76.409391 -84.480185 76.409391 -1.5479818e-08 -13.590609 
0.31 -2.1637239e-08 -14.057948 -83.025825 75.942052 -83.025825 75.942052 -2.1637239e-08 -14.057948 
0.32 -2.9937974e-08 -14.526754 -81.615619 75.473246 -81.615619 75.473246 -2.9937974e-08 -14.526754 
0.33 -4.1030476e-08 -14.997085 -80.246778 75.002915 -80.246778 75.002915 -4.1030474e-08 -14.997085 
0.34 -5.5732483e-08 -15.468997 -78.916759 74.531003 -78.916759 74.531003 -5.5732483e-08 -15.468997 
0.35 -7.5068892e-08 -15.942551 -77.623243 74.057449 -77.623243 74.057449 -7.5068892e-08 -15.942551 
0.36 -1.0031687e-07 -16.417807 -76.364104 73.582193 -76.364104 73.582193 -1.0031687e-07 -16.417807 
0.37 -1.3305936e-07 -16.894828 -75.137389 73.105172 -75.137389 73.105172 -1.3305936e-07 -16.894828 
0.38 -1.7524841e-07 -17.373675 -73.941302 72.626325 -73.941302 72.626325 -1.7524841e-07 -17.373675 
0.39 -2.2927974e-07 -17.854413 -72.774187 72.145587 -72.774187 72.145587 -2.2927973e-07 -17.854413 
0.4 -2.980804e-07 -18.337108 -71.634509 71.662892 -71.634509 71.662892 -2.980804e-07 -18.337108 
0.41 -3.852116e-07 -18.821827 -70.52085 71.178173 -70.52085 71.178173 -3.852116e-07 -18.821827 
0.42 -4.9498872e-07 -19.30864 -69.43189 70.69136 -69.43189 70.69136 -4.9498872e-07 -19.30864 
0.43 -6.326214e-07 -19.797615 -68.366405 70.202385 -68.366405 70.202385 -6.326214e-07 -19.797615 
0.44 -8.0437649e-07 -20.288825 -67.32325 69.711175 -67.32325 69.711175 -8.0437649e-07 -20.288825 
0.45 -1.0177672e-06 -20.782345 -66.301359 69.217655 -66.301359 69.217655 -1.0177672e-06 -20.782345 
0.46 -1.2817722e-06 -21.278249 -65.299735 68.721751 -65.299735 68.721751 -1.2817722e-06 -21.278249 
0.47 -1.6070893e-06 -21.776614 -64.317444 68.223386 -64.317444 68.223386 -1.6070893e-06 -21.776614 
0.48 -2.0064278e-06 -22.277522 -63.353609 67.722478 -63.353609 67.722478 -2.0064278e-06 -22.277522 
0.49 -2.4948462e-06 -22.781053 -62.407407 67.218947 -62.407407 67.218947 -2.4948462e-06 -22.781053 
0.5 -3.0901401e-06 -23.28729 -61.478063 66.71271 -61.478063 66.71271 -3.0901402e-06 -23.28729 
0.51 -3.8132888e-06 -23.796322 -60.564848 66.203678 -60.564848 66.203678 -3.8132888e-06 -23.796322 
0.52 -4.6889669e-06 -24.308235 -59.667074 65.691765 -59.667074 65.691765 -4.6889669e-06 -24.308235 
0.53 -5.7461324e-06 -24.823122 -58.78409 65.176878 -58.78409 65.176878 -5.7461324e-06 -24.823122 
0.54 -7.0186983e-06 -25.341077 -57.915281 64.658923 -57.915281 64.658923 -7.0186983e-06 -25.341077 
0.55 -8.5463026e-06 -25.862195 -57.060065 64.137805 -57.060065 64.137805 -8.5463026e-06 -25.862195 
0.56 -1.0375187e-05 -26.386578 -56.217889 63.613422 -56.217889 63.613422 -1.0375187e-05 -26.386578 
0.57 -1.25592e-05 -26.914327 -55.38823 63.085673 -55.38823 63.085673 -1.25592e-05 -26.914327 
0.58 -1.5160945e-05 -27.44555 -54.570588 62.55445 -54.570588 62.55445 -1.5160945e-05 -27.44555 
0.59 -1.8253083e-05 -27.980356 -53.76449 62.019644 -53.76449 62.019644 -1.8253083e-05 -27.980356 
0.6 -2.1919821e-05 -28.518858 -52.969484 61.481142 -52.969484 61.481142 -2.1919821e-05 -28.518858 
0.61 -2.6258608e-05 -29.061173 -52.185139 60.938827 -52.185139 60.938827 -2.6258608e-05 -29.061173 
0.62 -3.1382059e-05 -29.607423 -51.411044 60.392577 -51.411044 60.392577 -3.1382059e-05 -29.607423 
0.63 -3.7420151e-05 -30.157733 -50.646807 59.842267 -50.646807 59.842267 -3.7420151e-05 -30.157733 
0.64 -4.4522711e-05 -30.712233 -49.892049 59.287767 -49.892049 59.287767 -4.4522711e-05 -30.712233 
0.65 -5.2862253e-05 -31.271058 -49.146413 58.728942 -49.146413 58.728942 -5.2862253e-05 -31.271058 
0.66 -6.2637194e-05 -31.834347 -48.409552 58.165653 -48.409552 58.165653 -6.2637194e-05 -31.834347 
0.67 -7.4075506e-05 -32.402246 -47.681134 57.597754 -47.681134 57.597754 -7.4075506e-05 -32.402246 
0.68 -8.7438871e-05 -32.974905 -46.960841 57.025095 -46.960841 57.025095 -8.7438871e-05 -32.974905 
0.69 -0.00010302739 -33.55248 -46.248368 56.44752 -46.248368 56.44752 -0.00010302739 -33.55248 
0.7 -0.00012118492 -34.135134 -45.543418 55.864866 -45.543418 55.864866 -0.00012118492 -34.135134 
0.71 -0.00014230517 -34.723037 -44.845707 55.276963 -44.845707 55.276963 -0.00014230517 -34.723037 
0.72 -0.00016683857 -35.316364 -44.154962 54.683636 -44.154962 54.683636 -0.00016683857 -35.316364 
0.73 -0.00019530009 -35.915299 -43.470916 54.084701 -43.470916 54.084701 -0.00019530009 -35.915299 
0.74 -0.00022827812 -36.520034 -42.793314 53.479966 -42.793314 53.479966 -0.00022827812 -36.520034 
0.75 -0.00026644454 -37.130769 -42.121908 52.869231 -42.121908 52.869231 -0.00026644454 -37.130769 
0.76 -0.00031056619 -37.747713 -41.456457 52.252287 -41.456457 52.252287 -0.00031056619 -37.747713 
0.77 -0.00036151779 -38.371082 -40.796727 51.628918 -40.796727 51.628918 -0.00036151779 -38.371082 
0.78 -0.00042029678 -39.001107 -40.142493 50.998893 -40.142493 50.998893 -0.00042029678 -39.001107 
0.79 -0.00048803999 -39.638025 -39.493533 50.361975 -39.493533 50.361975 -0.00048803999 -39.638025 
0.8 -0.00056604277 -40.282086 -38.849634 49.717914 -38.849634 49.717914 -0.00056604277 -40.282086 
0.81 -0.00065578055 -40.933554 -38.210586 49.066446 -38.210586 49.066446 -0.00065578055 -40.933554 
0.82 -0.00075893357 -41.592702 -37.576185 48.407298 -37.576185 48.407298 -0.00075893357 -41.592702 
0.83 -0.0008774148 -42.25982 -36.946232 47.74018 -36.946232 47.74018 -0.0008774148 -42.25982 
0.84 -0.0010134019 -42.935211 -36.320533 47.064789 -36.320533 47.064789 -0.0010134019 -42.935211 
0.85 -0.0011693734 -43.619196 -35.698896 46.380804 -35.698896 46.380804 -0.0011693734 -43.619196 
0.86 -0.0013481504 -44.312109 -35.081134 45.687891 -35.081134 45.687891 -0.0013481504 -44.312109 
0.87 -0.0015529434 -45.014306 -34.467063 44.985694 -34.467063 44.985694 -0.0015529434 -45.014306 
0.88 -0.0017874063 -45.72616 -33.856504 44.27384 -33.856504 44.27384 -0.0017874063 -45.72616 
0.89 -0.0020556978 -46.448065 -33.249278 43.551935 -33.249278 43.551935 -0.0020556978 -46.448065 
0.9 -0.0023625518 -47.180438 -32.645211 42.819562 -32.645211 42.819562 -0.0023625518 -47.180438 
0.91 -0.0027133573 -47.92372 -32.04413 42.07628 -32.04413 42.07628 -0.0027133573 -47.92372 
0.92 -0.0031142509 -48.678377 -31.445864 41.321623 -31.445864 41.321623 -0.0031142509 -48.678377 
0.93 -0.003572221 -49.444903 -30.850246 40.555097 -30.850246 40.555097 -0.003572221 -49.444903 
0.94 -0.0040952296 -50.223823 -30.257108 39.776177 -30.257108 39.776177 -0.0040952296 -50.223823 
0.95 -0.0046923496 -51.015693 -29.666285 38.984307 -29.666285 38.984307 -0.0046923496 -51.015693 
0.96 -0.0053739242 -51.821104 -29.077614 38.178896 -29.077614 38.178896 -0.0053739242 -51.821104 
0.97 -0.0061517492 -52.640685 -28.490932 37.359315 -28.490932 37.359315 -0.0061517492 -52.640685 
0.98 -0.0070392833 -53.475106 -27.906078 36.524894 -27.906078 36.524894 -0.0070392833 -53.475106 
0.99 -0.00805189 -54.325082 -27.32289 35.674918 -27.32289 35.674918 -0.00805189 -54.325082 
1 -0.0092071165 -55.191373 -26.741209 34.808627 -26.741209 34.808627 -0.0092071165 -55.191373 
1.01 -0.010525016 -56.074794 -26.160877 33.925206 -26.160877 33.925206 -0.010525016 -56.074794 
1.02 -0.01202852 -56.976214 -25.581734 33.023786 -25.581734 33.023786 -0.01202852 -56.976214 
1.03 -0.013743868 -57.896565 -25.003623 32.103435 -25.003623 32.103435 -0.013743868 -57.896565 
1.04 -0.015701109 -58.836845 -24.426388 31.163155 -24.426388 31.163155 -0.015701109 -58.836845 
1.05 -0.017934676 -59.798123 -23.849872 30.201877 -23.849872 30.201877 -0.017934676 -59.798123 
1.06 -0.020484064 -60.781549 -23.27392 29.218451 -23.27392 29.218451 -0.020484064 -60.781549 
1.07 -0.023394606 -61.788357 -22.698378 28.211643 -22.698378 28.211643 -0.023394606 -61.788357 
1.08 -0.026718386 -62.819877 -22.123093 27.180123 -22.123093 27.180123 -0.026718386 -62.819877 
1.09 -0.030515299 -63.877539 -21.547916 26.122461 -21.547916 26.122461 -0.030515299 -63.877539 
1.1 -0.034854289 -64.962886 -20.972696 25.037114 -20.972696 25.037114 -0.034854289 -64.962886 
1.11 -0.039814797 -66.07758 -20.39729 23.92242 -20.39729 23.92242 -0.039814797 -66.07758 
1.12 -0.045488453 -67.22342 -19.821556 22.77658 -19.821556 22.77658 -0.045488453 -67.22342 
1.13 -0.05198106 -68.402347 -19.245356 21.597653 -19.245356 21.597653 -0.05198106 -68.402347 
1.14 -0.05941492 -69.61646 -18.668562 20.38354 -18.668562 20.38354 -0.05941492 -69.61646 
1.15 -0.067931564 -70.868032 -18.091048 19.131968 -18.091048 19.131968 -0.067931564 -70.868032 
1.16 -0.077694963 -72.159522 -17.512704 17.840478 -17.512704 17.840478 -0.077694963 -72.159522 
1.17 -0.088895294 -73.493596 -16.933427 16.506404 -16.933427 16.506404 -0.088895294 -73.493596 
1.18 -0.10175339 -74.873138 -16.353132 15.126862 -16.353132 15.126862 -0.10175339 -74.873138 
1.19 -0.11652595 -76.301274 -15.771749 13.698726 -15.771749 13.698726 -0.11652595 -76.301274 
1.2 -0.13351171 -77.78139 -15.189235 12.21861 -15.189235 12.21861 -0.13351171 -77.78139 
1.21 -0.15305865 -79.317148 -14.605569 10.682852 -14.605569 10.682852 -0.15305865 -79.317148 
1.22 -0.17557254 -80.912509 -14.020768 9.0874907 -14.020768 9.0874907 -0.17557254 -80.912509 
1.23 -0.20152694 -82.571749 -13.434886 7.4282515 -13.434886 7.4282515 -0.20152694 -82.571749 
1.24 -0.2314749 -84.299473 -12.848027 5.7005275 -12.848027 5.7005275 -0.2314749 -84.299473 
1.25 -0.26606273 -86.100631 -12.260355 3.8993691 -12.260355 3.8993691 -0.26606273 -86.100631 
1.26 -0.30604597 -87.980523 -11.672101 2.0194768 -11.672101 2.0194768 -0.30604597 -87.980523 
1.27 -0.35230799 -89.944797 -11.083581 0.05520342 -11.083581 0.05520342 -0.35230799 -89.944797 
1.28 -0.40588144 -91.999433 -10.495211 -1.9994331 -10.495211 -1.9994331 -0.40588144 -91.999433 
1.29 -0.46797279 -94.15072 -9.9075226 -4.15072 -9.9075226 -4.15072 -0.46797279 -94.15072 
1.3 -0.5399902 -96.405199 -9.3211822 -6.4051987 -9.3211822 -6.4051987 -0.5399902 -96.405199 
1.31 -0.62357473 -98.769587 -8.7370154 -8.7695866 -8.7370154 -8.7695866 -0.62357473 -98.769587 
1.32 -0.72063471 -101.25066 -8.1560275 -11.250663 -8.1560275 -11.250663 -0.72063471 -101.25066 
1.33 -0.83338295 -103.85511 -7.5794271 -13.855109 -7.5794271 -13.855109 -0.83338295 -103.85511 
1.34 -0.96437577 -106.5893 -7.008649 -16.589302 -7.008649 -16.589302 -0.96437577 -106.5893 
1.35 -1.1165527 -109.45904 -6.4453729 -19.459041 -6.4453729 -19.459041 -1.1165527 -109.45904 
1.36 -1.2932749 -112.46921 -5.8915371 -22.469209 -5.8915371 -22.469209 -1.2932749 -112.46921 
1.37 -1.4983602 -115.62338 -5.3493426 -25.623376 -5.3493426 -25.623376 -1.4983602 -115.62338 
1.38 -1.7361115 -118.92333 -4.8212438 -28.92333 -4.8212438 -28.92333 -1.7361115 -118.92333 
1.39 -2.0113371 -122.36858 -4.3099195 -32.368577 -4.3099195 -32.368577 -2.0113371 -122.36858 
1.4 -2.3293613 -125.95583 -3.8182226 -35.955826 -3.8182226 -35.955826 -2.3293613 -125.95583 
1.41 -2.6960261 -129.67851 -3.3491026 -39.678514 -3.3491026 -39.678514 -2.6960261 -129.67851 
1.42 -3.1176908 -133.52643 -2.9055007 -43.526428 -2.9055007 -43.526428 -3.1176908 -133.52643 
1.43 -3.6012409 -137.48551 -2.4902217 -47.485507 -2.4902217 -47.485507 -3.6012409 -137.48551 
1.44 -4.1541289 -141.53788 -2.1057888 -51.537877 -2.1057888 -51.537877 -4.1541289 -141.53788 
1.45 -4.7844808 -145.66218 -1.7542936 -55.66218 -1.7542936 -55.66218 -4.7844808 -145.66218 
1.46 -5.5013197 -149.83421 -1.4372598 -59.834213 -1.4372598 -59.834213 -5.5013197 -149.83421 
1.47 -6.3149783 -154.02785 -1.1555345 -64.027849 -1.1555345 -64.027849 -6.3149783 -154.02785 
1.48 -7.2378105 -158.21616 -0.90922569 -68.216163 -0.90922569 -68.216163 -7.2378105 -158.21616 
1.49 -8.2853755 -162.37264 -0.69769323 -72.37264 -0.69769323 -72.37264 -8.2853755 -162.37264 
1.5 -9.4784005 -166.47235 -0.51959507 -76.472345 -0.51959507 -76.472345 -9.4784005 -166.47235 
1.51 -10.846116 -170.49292 -0.37298242 -80.492916 -0.37298242 -80.492916 -10.846116 -170.49292 
1.52 -12.432224 -174.4153 -0.25542931 -84.415301 -0.25542931 -84.415301 -12.432224 -174.4153 
1.53 -14.306471 -178.22418 -0.16418002 -88.224182 -0.16418002 -88.224182 -14.306471 -178.22418 
1.54 -16.589773 178.0919 -0.096297037 -91.908104 -0.096297037 -91.908104 -16.589773 178.0919 
1.55 -19.518375 174.54066 -0.048796015 -95.459344 -0.048796015 -95.459344 -19.518375 174.54066 
1.56 -23.655264 171.12642 -0.018758385 -98.873575 -0.018758385 -98.873575 -23.655264 171.12642 
1.57 -31.042712 167.85058 -0.0034173066 -102.14942 -0.0034173066 -102.14942 -31.042712 167.85058 
1.58 -43.017345 -15.28796 -0.00021680067 -105.28796 -0.00021680067 -105.28796 -43.017345 -15.28796 
1.59 -28.026461 -18.29218 -0.006846687 -108.29218 -0.006846687 -108.29218 -28.026461 -18.29218 
1.6 -23.113333 -21.166538 -0.021257561 -111.16654 -0.021257561 -111.16654 -23.113333 -21.166538 
1.61 -20.201408 -23.916517 -0.041660534 -113.91652 -0.041660534 -113.91652 -20.201408 -23.916517 
1.62 -18.181782 -26.54827 -0.066516236 -116.54827 -0.066516236 -116.54827 -18.181782 -26.54827 
1.63 -16.669919 -29.068332 -0.09451695 -119.06833 -0.09451695 -119.06833 -16.669919 -29.068332 
1.64 -15.486018 -31.483393 -0.12456494 -121.48339 -0.12456494 -121.48339 -15.486018 -31.483393 
1.65 -14.531225 -33.800116 -0.15574928 -123.80012 -0.15574928 -123.80012 -14.531225 -33.800116 
1.66 -13.745263 -36.025021 -0.18732273 -126.02502 -0.18732273 -126.02502 -13.745263 -36.025021 
1.67 -13.088638 -38.164387 -0.21867977 -128.16439 -0.21867977 -128.16439 -13.088638 -38.164387 
1.68 -12.534059 -40.224198 -0.24933632 -130.2242 -0.24933632 -130.2242 -12.534059 -40.224198 
1.69 -12.061889 -42.210106 -0.27891146 -132.21011 -0.27891146 -132.21011 -12.061889 -42.210106 
1.7 -11.657536 -44.127414 -0.3071113 -134.12741 -0.3071113 -134.12741 -11.657536 -44.127414 
1.71 -11.309877 -45.981068 -0.33371484 -135.98107 -0.33371484 -135.98107 -11.309877 -45.981068 
1.72 -11.01025 -47.775666 -0.35856182 -137.77567 -0.35856182 -137.77567 -11.01025 -47.775666 
1.73 -10.751792 -49.515465 -0.38154223 -139.51547 -0.38154223 -139.51547 -10.751792 -49.515465 
1.74 -10.528979 -51.204398 -0.40258747 -141.2044 -0.40258747 -141.2044 -10.528979 -51.204398 
1.75 -10.337316 -52.846089 -0.42166282 -142.84609 -0.42166282 -142.84609 -10.337316 -52.846089 
1.76 -10.173096 -54.443877 -0.43876106 -144.44388 -0.43876106 -144.44388 -10.173096 -54.443877 
1.77 -10.03324 -56.000827 -0.45389721 -146.00083 -0.45389721 -146.00083 -10.03324 -56.000827 
1.78 -9.9151657 -57.519759 -0.46710405 -147.51976 -0.46710405 -147.51976 -9.9151657 -57.519759 
1.79 -9.816692 -59.00326 -0.4784284 -149.00326 -0.4784284 -149.00326 -9.816692 -59.00326 
1.8 -9.7359654 -60.453702 -0.48792805 -150.4537 -0.48792805 -150.4537 -9.7359654 -60.453702 
1.81 -9.6714017 -61.873262 -0.49566917 -151.87326 -0.49566917 -151.87326 -9.6714017 -61.873262 
1.82 -9.62164 -63.263939 -0.50172419 -153.26394 -0.50172419 -153.26394 -9.62164 -63.263939 
1.83 -9.585506 -64.627562 -0.50617004 -154.62756 -0.50617004 -154.62756 -9.585506 -64.627562 
1.84 -9.5619827 -65.965812 -0.50908671 -155.96581 -0.50908671 -155.96581 -9.5619827 -65.965812 
1.85 -9.5501863 -67.280227 -0.51055605 -157.28023 -0.51055605 -157.28023 -9.5501863 -67.280227 
1.86 -9.5493468 -68.57222 -0.51066079 -158.57222 -0.51066079 -158.57222 -9.5493468 -68.57222 
1.87 -9.5587914 -69.843086 -0.50948377 -159.84309 -0.50948377 -159.84309 -9.5587914 -69.843086 
1.88 -9.5779317 -71.094013 -0.50710724 -161.09401 -0.50710724 -161.09401 -9.5779317 -71.094013 
1.89 -9.606252 -72.32609 -0.50361242 -162.32609 -0.50361242 -162.32609 -9.606252 -72.32609 
1.9 -9.6433002 -73.540316 -0.499079 -163.54032 -0.499079 -163.54032 -9.6433002 -73.540316 
1.91 -9.6886802 -74.737608 -0.49358485 -164.73761 -0.49358485 -164.73761 -9.6886802 -74.737608 
1.92 -9.7420446 -75.918806 -0.48720578 -165.91881 -0.48720578 -165.91881 -9.7420446 -75.918806 
1.93 -9.8030896 -77.084682 -0.48001529 -167.08468 -0.48001529 -167.08468 -9.8030896 -77.084682 
1.94 -9.8715503 -78.235943 -0.47208446 -168.23594 -0.47208446 -168.23594 -9.8715503 -78.235943 
1.95 -9.9471961 -79.373238 -0.46348183 -169.37324 -0.46348183 -169.37324 -9.9471961 -79.373238 
1.96 -10.029828 -80.497161 -0.45427332 -170.49716 -0.45427332 -170.49716 -10.029828 -80.497161 
1.97 -10.119274 -81.608258 -0.44452217 -171.60826 -0.44452217 -171.60826 -10.119274 -81.608258 
1.98 -10.21539 -82.707028 -0.43428898 -172.70703 -0.43428898 -172.70703 -10.21539 -82.707028 
1.99 -10.318054 -83.793929 -0.4236316 -173.79393 -0.4236316 -173.79393 -10.318054 -83.793929 
2 -10.427165 -84.869383 -0.41260524 -174.86938 -0.41260524 -174.86938 -10.427165 -84.869383 
2.01 -10.542644 -85.933772 -0.40126246 -175.93377 -0.40126246 -175.93377 -10.542644 -85.933772 
2.02 -10.664431 -86.98745 -0.38965316 -176.98745 -0.38965316 -176.98745 -10.664431 -86.98745 
2.03 -10.792482 -88.030738 -0.3778247 -178.03074 -0.3778247 -178.03074 -10.792482 -88.030738 
2.04 -10.926773 -89.063932 -0.36582191 -179.06393 -0.36582191 -179.06393 -10.926773 -89.063932 
2.05 -11.067294 -90.087303 -0.35368713 179.9127 -0.35368713 179.9127 -11.067294 -90.087303 
2.06 -11.214052 -91.101097 -0.3414603 178.8989 -0.3414603 178.8989 -11.214052 -91.101097 
2.07 -11.367071 -92.10554 -0.32917903 177.89446 -0.32917903 177.89446 -11.367071 -92.10554 
2.08 -11.52639 -93.100839 -0.31687862 176.89916 -0.31687862 176.89916 -11.52639 -93.100839 
2.09 -11.692061 -94.087184 -0.30459219 175.91282 -0.30459219 175.91282 -11.692061 -94.087184 
2.1 -11.864157 -95.064747 -0.2923507 174.93525 -0.2923507 174.93525 -11.864157 -95.064747 
2.11 -12.042763 -96.033686 -0.28018303 173.96631 -0.28018303 173.96631 -12.042763 -96.033686 
2.12 -12.227983 -96.994147 -0.26811608 173.00585 -0.26811608 173.00585 -12.227983 -96.994147 
2.13 -12.419937 -97.946261 -0.25617482 172.05374 -0.25617482 172.05374 -12.419937 -97.946261 
2.14 -12.618763 -98.89015 -0.24438236 171.10985 -0.24438236 171.10985 -12.618763 -98.89015 
2.15 -12.82462 -99.825926 -0.23276001 170.17407 -0.23276001 170.17407 -12.82462 -99.825926 
2.16 -13.037685 -100.75369 -0.22132738 169.24631 -0.22132738 169.24631 -13.037685 -100.75369 
2.17 -13.25816 -101.67353 -0.21010244 168.32647 -0.21010244 168.32647 -13.25816 -101.67353 
2.18 -13.486267 -102.58555 -0.19910158 167.41445 -0.19910158 167.41445 -13.486267 -102.58555 
2.19 -13.722255 -103.48981 -0.18833966 166.51019 -0.18833966 166.51019 -13.722255 -103.48981 
2.2 -13.966402 -104.38639 -0.17783012 165.61361 -0.17783012 165.61361 -13.966402 -104.38639 
2.21 -14.219014 -105.27536 -0.16758503 164.72464 -0.16758503 164.72464 -14.219014 -105.27536 
2.22 -14.480433 -106.15679 -0.15761513 163.84321 -0.15761513 163.84321 -14.480433 -106.15679 
2.23 -14.751038 -107.03072 -0.14792993 162.96928 -0.14792993 162.96928 -14.751038 -107.03072 
2.24 -15.031247 -107.89722 -0.13853773 162.10278 -0.13853773 162.10278 -15.031247 -107.89722 
2.25 -15.321528 -108.75634 -0.12944573 161.24366 -0.12944573 161.24366 -15.321528 -108.75634 
2.26 -15.622399 -109.60813 -0.12066004 160.39187 -0.12066004 160.39187 -15.622399 -109.60813 
2.27 -15.934437 -110.45263 -0.11218579 159.54737 -0.11218579 159.54737 -15.934437 -110.45263 
2.28 -16.258287 -111.28989 -0.10402712 158.71011 -0.10402712 158.71011 -16.258287 -111.28989 
2.29 -16.594671 -112.11996 -0.096187289 157.88004 -0.096187289 157.88004 -16.594671 -112.11996 
2.3 -16.944398 -112.94286 -0.088668714 157.05714 -0.088668714 157.05714 -16.944398 -112.94286 
2.31 -17.308379 -113.75866 -0.081473004 156.24134 -0.081473004 156.24134 -17.308379 -113.75866 
2.32 -17.687642 -114.56737 -0.074601027 155.43263 -0.074601027 155.43263 -17.687642 -114.56737 
2.33 -18.083356 -115.36904 -0.068052947 154.63096 -0.068052947 154.63096 -18.083356 -115.36904 
2.34 -18.496849 -116.16372 -0.061828278 153.83628 -0.061828278 153.83628 -18.496849 -116.16372 
2.35 -18.929644 -116.95143 -0.055925924 153.04857 -0.055925924 153.04857 -18.929644 -116.95143 
2.36 -19.383495 -117.73222 -0.05034422 152.26778 -0.05034422 152.26778 -19.383495 -117.73222 
2.37 -19.860431 -118.50612 -0.045080979 151.49388 -0.045080979 151.49388 -19.860431 -118.50612 
2.38 -20.362821 -119.27316 -0.040133526 150.72684 -0.040133526 150.72684 -20.362821 -119.27316 
2.39 -20.893451 -120.0334 -0.035498737 149.9666 -0.035498737 149.9666 -20.893451 -120.0334 
2.4 -21.455624 -120.78686 -0.031173078 149.21314 -0.031173078 149.21314 -21.455624 -120.78686 
2.41 -22.053293 -121.53358 -0.027152635 148.46642 -0.027152635 148.46642 -22.053293 -121.53358 
2.42 -22.691247 -122.27361 -0.023433152 147.72639 -0.023433152 147.72639 -22.691247 -122.27361 
2.43 -23.37536 -123.00698 -0.02001006 146.99302 -0.02001006 146.99302 -23.37536 -123.00698 
2.44 -24.11294 -123.73373 -0.016878506 146.26627 -0.016878506 146.26627 -24.11294 -123.73373 
2.45 -24.913234 -124.45391 -0.014033385 145.54609 -0.014033385 145.54609 -24.913234 -124.45391 
2.46 -25.788184 -125.16754 -0.011469363 144.83246 -0.011469363 144.83246 -25.788184 -125.16754 
2.47 -26.753577 -125.87469 -0.0091809059 144.12531 -0.0091809059 144.12531 -26.753577 -125.87469 
2.48 -27.830896 -126.57538 -0.0071623044 143.42462 -0.0071623044 143.42462 -27.830896 -126.57538 
2.49 -29.050425 -127.26966 -0.0054076941 142.73034 -0.0054076941 142.73034 -29.050425 -127.26966 
2.5 -30.456832 -127.95758 -0.0039110797 142.04242 -0.0039110797 142.04242 -30.456832 -127.95758 
2.51 -32.119997 -128.63917 -0.0026663545 141.36083 -0.0026663545 141.36083 -32.119997 -128.63917 
2.52 -34.158486 -129.3145 -0.0016673203 140.6855 -0.0016673203 140.6855 -34.158486 -129.3145 
2.53 -36.798849 -129.98359 -0.00090770523 140.01641 -0.00090770523 140.01641 -36.798849 -129.98359 
2.54 -40.566723 -130.6465 -0.00038118088 139.3535 -0.00038118088 139.3535 -40.566723 -130.6465 
2.55 -47.272795 -131.30327 -8.137835e-05 138.69673 -8.137835e-05 138.69673 -47.272795 -131.30327 
2.56 -63.583366 48.046046 -1.9030394e-06 138.04605 -1.9030394e-06 138.04605 -63.583366 48.046046 
2.57 -45.031406 47.401401 -0.00013634855 137.4014 -0.00013634855 137.4014 -45.031406 47.401401 
2.58 -39.580991 46.762747 -0.00047830962 136.76275 -0.00047830962 136.76275 -39.580991 46.762747 
2.59 -36.28642 46.130034 -0.0010213941 136.13003 -0.0010213941 136.13003 -36.28642 46.130034 
2.6 -33.925487 45.503213 -0.001759234 135.50321 -0.001759234 135.50321 -33.925487 45.503213 
2.61 -32.088941 44.882234 -0.0026854959 134.88223 -0.0026854959 134.88223 -32.088941 44.882234 
2.62 -30.588893 44.267045 -0.00379389 134.26704 -0.00379389 134.26704 -30.588893 44.267045 
2.63 -29.323302 43.657595 -0.0050781793 133.6576 -0.0050781793 133.6576 -29.323302 43.657595 
2.64 -28.230523 43.053834 -0.0065321871 133.05383 -0.0065321871 133.05383 -28.230523 43.053834 
2.65 -27.270446 42.455708 -0.0081498044 132.45571 -0.0081498044 132.45571 -27.270446 42.455708 
2.66 -26.415501 41.863166 -0.0099249965 131.86317 -0.0099249965 131.86317 -26.415501 41.863166 
2.67 -25.645921 41.276156 -0.011851809 131.27616 -0.011851809 131.27616 -25.645921 41.276156 
2.68 -24.947047 40.694624 -0.013924372 130.69462 -0.013924372 130.69462 -24.947047 40.694624 
2.69 -24.307706 40.118519 -0.016136907 130.11852 -0.016136907 130.11852 -24.307706 40.118519 
2.7 -23.719186 39.547786 -0.018483729 129.54779 -0.018483729 129.54779 -23.719186 39.547786 
2.71 -23.174561 38.982373 -0.020959253 128.98237 -0.020959253 128.98237 -23.174561 38.982373 
2.72 -22.668234 38.422226 -0.023557993 128.42223 -0.023557993 128.42223 -22.668234 38.422226 
2.73 -22.195618 37.867293 -0.026274569 127.86729 -0.026274569 127.86729 -22.195618 37.867293 
2.74 -21.752904 37.31752 -0.029103707 127.31752 -0.029103707 127.31752 -21.752904 37.31752 
2.75 -21.336896 36.772853 -0.032040242 126.77285 -0.032040242 126.77285 -21.336896 36.772853 
2.76 -20.944884 36.23324 -0.035079119 126.23324 -0.035079119 126.23324 -20.944884 36.23324 
2.77 -20.574553 35.698626 -0.038215395 125.69863 -0.038215395 125.69863 -20.574553 35.698626 
2.78 -20.223907 35.168959 -0.04144424 125.16896 -0.04144424 125.16896 -20.223907 35.168959 
2.79 -19.891213 34.644186 -0.044760937 124.64419 -0.044760937 124.64419 -19.891213 34.644186 
2.8 -19.574957 34.124254 -0.048160882 124.12425 -0.048160882 124.12425 -19.574957 34.124254 
2.81 -19.27381 33.60911 -0.051639587 123.60911 -0.051639587 123.60911 -19.27381 33.60911 
2.82 -18.986596 33.098701 -0.055192676 123.0987 -0.055192676 123.0987 -18.986596 33.098701 
2.83 -18.712271 32.592976 -0.058815889 122.59298 -0.058815889 122.59298 -18.712271 32.592976 
2.84 -18.449905 32.091881 -0.062505076 122.09188 -0.062505076 122.09188 -18.449905 32.091881 
2.85 -18.198664 31.595365 -0.066256203 121.59536 -0.066256203 121.59536 -18.198664 31.595365 
2.86 -17.957796 31.103376 -0.070065345 121.10338 -0.070065345 121.10338 -17.957796 31.103376 
2.87 -17.726625 30.615863 -0.07392869 120.61586 -0.07392869 120.61586 -17.726625 30.615863 
2.88 -17.504537 30.132775 -0.077842535 120.13278 -0.077842535 120.13278 -17.504537 30.132775 
2.89 -17.290973 29.654062 -0.081803286 119.65406 -0.081803286 119.65406 -17.290973 29.654062 
2.9 -17.085426 29.179671 -0.085807455 119.17967 -0.085807455 119.17967 -17.085426 29.179671 
2.91 -16.88743 28.709554 -0.089851661 118.70955 -0.089851661 118.70955 -16.88743 28.709554 
2.92 -16.69656 28.243661 -0.093932627 118.24366 -0.093932627 118.24366 -16.69656 28.243661 
2.93 -16.512423 27.781942 -0.09804718 117.78194 -0.09804718 117.78194 -16.512423 27.781942 
2.94 -16.33466 27.324349 -0.10219224 117.32435 -0.10219224 117.32435 -16.33466 27.324349 
2.95 -16.162936 26.870833 -0.10636485 116.87083 -0.10636485 116.87083 -16.162936 26.870833 
2.96 -15.996943 26.421345 -0.11056212 116.42134 -0.11056212 116.42134 -15.996943 26.421345 
2.97 -15.836397 25.975838 -0.11478127 115.97584 -0.11478127 115.97584 -15.836397 25.975838 
2.98 -15.681032 25.534265 -0.11901961 115.53426 -0.11901961 115.53426 -15.681032 25.534265 
2.99 -15.5306 25.096578 -0.12327456 115.09658 -0.12327456 115.09658 -15.5306 25.096578 
3 -15.384872 24.662732 -0.12754361 114.66273 -0.12754361 114.66273 -15.384872 24.662732 
3.01 -15.243633 24.23268 -0.13182434 114.23268 -0.13182434 114.23268 -15.243633 24.23268 
3.02 -15.106681 23.806376 -0.13611442 113.80638 -0.13611442 113.80638 -15.106681 23.806376 
3.03 -14.97383 23.383776 -0.1404116 113.38378 -0.1404116 113.38378 -14.97383 23.383776 
3.04 -14.844901 22.964835 -0.14471374 112.96484 -0.14471374 112.96484 -14.844901 22.964835 
3.05 -14.719731 22.549509 -0.14901873 112.54951 -0.14901873 112.54951 -14.719731 22.549509 
3.06 -14.598162 22.137754 -0.15332459 112.13775 -0.15332459 112.13775 -14.598162 22.137754 
3.07 -14.480048 21.729526 -0.15762937 111.72953 -0.15762937 111.72953 -14.480048 21.729526 
3.08 -14.365251 21.324784 -0.16193123 111.32478 -0.16193123 111.32478 -14.365251 21.324784 