! AWR Design Environment (17492) Mon Jun 30 08:36:40 2025
! Document = 'test_stripline'
! nPorts: 2, nXvals: 991

# GHz S DB R 50
!Freq DBS11 AngS11 DBS21 AngS21 DBS12 AngS12 DBS22 AngS22 
0.1 -36.489903 -94.313663 -0.025999446 -2.8735768 -0.025999446 -2.8735768 -36.489903 -94.313663 
0.11 -35.628944 -94.802553 -0.028181898 -3.1569501 -0.028181898 -3.1569501 -35.628944 -94.802553 
0.12 -34.844669 -95.266414 -0.030354916 -3.4401165 -0.030354916 -3.4401165 -34.844669 -95.266414 
0.13 -34.124735 -95.709771 -0.032522664 -3.7231071 -0.032522664 -3.7231071 -34.124735 -95.709771 
0.14 -33.459529 -96.135991 -0.034688772 -4.0059436 -0.034688772 -4.0059436 -33.459529 -96.135991 
0.15 -32.841424 -96.547687 -0.036856309 -4.2886413 -0.036856309 -4.2886413 -32.841424 -96.547687 
0.16 -32.264272 -96.94694 -0.039027821 -4.5712107 -0.039027821 -4.5712107 -32.264272 -96.94694 
0.17 -31.723048 -97.335447 -0.0412054 -4.8536592 -0.0412054 -4.8536592 -31.723048 -97.335447 
0.18 -31.213594 -97.714609 -0.043390752 -5.1359923 -0.043390752 -5.1359923 -31.213594 -97.714609 
0.19 -30.73243 -98.085595 -0.045585263 -5.4182137 -0.045585263 -5.4182137 -30.73243 -98.085595 
0.2 -30.27662 -98.449391 -0.047790061 -5.7003263 -0.047790061 -5.7003263 -30.27662 -98.449391 
0.21 -29.843661 -98.806834 -0.050006064 -5.9823323 -0.050006064 -5.9823323 -29.843661 -98.806834 
0.22 -29.431403 -99.158636 -0.052234021 -6.2642331 -0.052234021 -6.2642331 -29.431403 -99.158636 
0.23 -29.037988 -99.505409 -0.054474548 -6.5460303 -0.054474548 -6.5460303 -29.037988 -99.505409 
0.24 -28.661797 -99.847677 -0.056728149 -6.8277248 -0.056728149 -6.8277248 -28.661797 -99.847677 
0.25 -28.301411 -100.1859 -0.058995245 -7.1093174 -0.058995245 -7.1093174 -28.301411 -100.1859 
0.26 -27.955583 -100.52046 -0.061276185 -7.3908089 -0.061276185 -7.3908089 -27.955583 -100.52046 
0.27 -27.623206 -100.85171 -0.06357126 -7.6721999 -0.06357126 -7.6721999 -27.623206 -100.85171 
0.28 -27.303296 -101.17995 -0.065880716 -7.9534908 -0.065880716 -7.9534908 -27.303296 -101.17995 
0.29 -26.994976 -101.50544 -0.06820476 -8.2346821 -0.06820476 -8.2346821 -26.994976 -101.50544 
0.3 -26.697455 -101.82841 -0.070543568 -8.5157741 -0.070543568 -8.5157741 -26.697455 -101.82841 
0.31 -26.410025 -102.14906 -0.072897288 -8.7967669 -0.072897288 -8.7967669 -26.410025 -102.14906 
0.32 -26.132044 -102.46759 -0.075266045 -9.0776608 -0.075266045 -9.0776608 -26.132044 -102.46759 
0.33 -25.862929 -102.78414 -0.077649945 -9.3584558 -0.077649945 -9.3584558 -25.862929 -102.78414 
0.34 -25.602151 -103.09886 -0.080049078 -9.6391519 -0.080049078 -9.6391519 -25.602151 -103.09886 
0.35 -25.349228 -103.41188 -0.082463515 -9.9197492 -0.082463515 -9.9197492 -25.349228 -103.41188 
0.36 -25.103717 -103.72332 -0.084893316 -10.200247 -0.084893316 -10.200247 -25.103717 -103.72332 
0.37 -24.865214 -104.03327 -0.087338529 -10.480647 -0.087338529 -10.480647 -24.865214 -104.03327 
0.38 -24.633345 -104.34184 -0.089799188 -10.760946 -0.089799188 -10.760946 -24.633345 -104.34184 
0.39 -24.407769 -104.6491 -0.09227532 -11.041146 -0.09227532 -11.041146 -24.407769 -104.6491 
0.4 -24.188167 -104.95513 -0.094766938 -11.321247 -0.094766938 -11.321247 -24.188167 -104.95513 
0.41 -23.974246 -105.26001 -0.09727405 -11.601246 -0.09727405 -11.601246 -23.974246 -105.26001 
0.42 -23.765735 -105.56378 -0.099796652 -11.881146 -0.099796652 -11.881146 -23.765735 -105.56378 
0.43 -23.56238 -105.86653 -0.10233473 -12.160944 -0.10233473 -12.160944 -23.56238 -105.86653 
0.44 -23.363947 -106.16828 -0.10488828 -12.44064 -0.10488828 -12.44064 -23.363947 -106.16828 
0.45 -23.170216 -106.4691 -0.10745726 -12.720235 -0.10745726 -12.720235 -23.170216 -106.4691 
0.46 -22.980982 -106.76903 -0.11004165 -12.999727 -0.11004165 -12.999727 -22.980982 -106.76903 
0.47 -22.796054 -107.06811 -0.1126414 -13.279116 -0.1126414 -13.279116 -22.796054 -107.06811 
0.48 -22.615253 -107.36638 -0.11525647 -13.558401 -0.11525647 -13.558401 -22.615253 -107.36638 
0.49 -22.438411 -107.66387 -0.11788681 -13.837582 -0.11788681 -13.837582 -22.438411 -107.66387 
0.5 -22.265369 -107.96062 -0.12053236 -14.116658 -0.12053236 -14.116658 -22.265369 -107.96062 
0.51 -22.095979 -108.25665 -0.12319306 -14.395629 -0.12319306 -14.395629 -22.095979 -108.25665 
0.52 -21.930102 -108.552 -0.12586885 -14.674493 -0.12586885 -14.674493 -21.930102 -108.552 
0.53 -21.767605 -108.84669 -0.12855964 -14.953251 -0.12855964 -14.953251 -21.767605 -108.84669 
0.54 -21.608365 -109.14074 -0.13126537 -15.231901 -0.13126537 -15.231901 -21.608365 -109.14074 
0.55 -21.452263 -109.43418 -0.13398595 -15.510444 -0.13398595 -15.510444 -21.452263 -109.43418 
0.56 -21.299189 -109.72702 -0.13672129 -15.788877 -0.13672129 -15.788877 -21.299189 -109.72702 
0.57 -21.149038 -110.0193 -0.1394713 -16.067202 -0.1394713 -16.067202 -21.149038 -110.0193 
0.58 -21.001709 -110.31102 -0.1422359 -16.345416 -0.1422359 -16.345416 -21.001709 -110.31102 
0.59 -20.857109 -110.60221 -0.14501497 -16.623519 -0.14501497 -16.623519 -20.857109 -110.60221 
0.6 -20.715148 -110.89287 -0.14780843 -16.901511 -0.14780843 -16.901511 -20.715148 -110.89287 
0.61 -20.575739 -111.18304 -0.15061615 -17.179391 -0.15061615 -17.179391 -20.575739 -111.18304 
0.62 -20.438803 -111.47271 -0.15343804 -17.457158 -0.15343804 -17.457158 -20.438803 -111.47271 
0.63 -20.304262 -111.7619 -0.15627399 -17.734811 -0.15627399 -17.734811 -20.304262 -111.7619 
0.64 -20.172043 -112.05063 -0.15912387 -18.01235 -0.15912387 -18.01235 -20.172043 -112.05063 
0.65 -20.042075 -112.33891 -0.16198757 -18.289775 -0.16198757 -18.289775 -20.042075 -112.33891 
0.66 -19.914291 -112.62675 -0.16486496 -18.567083 -0.16486496 -18.567083 -19.914291 -112.62675 
0.67 -19.788628 -112.91416 -0.16775593 -18.844276 -0.16775593 -18.844276 -19.788628 -112.91416 
0.68 -19.665025 -113.20115 -0.17066034 -19.121351 -0.17066034 -19.121351 -19.665025 -113.20115 
0.69 -19.543422 -113.48773 -0.17357806 -19.398309 -0.17357806 -19.398309 -19.543422 -113.48773 
0.7 -19.423766 -113.77391 -0.17650897 -19.675148 -0.17650897 -19.675148 -19.423766 -113.77391 
0.71 -19.306001 -114.05969 -0.17945293 -19.951868 -0.17945293 -19.951868 -19.306001 -114.05969 
0.72 -19.190077 -114.34509 -0.1824098 -20.228469 -0.1824098 -20.228469 -19.190077 -114.34509 
0.73 -19.075945 -114.63012 -0.18537944 -20.504949 -0.18537944 -20.504949 -19.075945 -114.63012 
0.74 -18.963558 -114.91477 -0.18836172 -20.781309 -0.18836172 -20.781309 -18.963558 -114.91477 
0.75 -18.85287 -115.19906 -0.19135648 -21.057547 -0.19135648 -21.057547 -18.85287 -115.19906 
0.76 -18.743838 -115.483 -0.19436358 -21.333662 -0.19436358 -21.333662 -18.743838 -115.483 
0.77 -18.636421 -115.76658 -0.19738288 -21.609655 -0.19738288 -21.609655 -18.636421 -115.76658 
0.78 -18.530579 -116.04983 -0.20041422 -21.885524 -0.20041422 -21.885524 -18.530579 -116.04983 
0.79 -18.426272 -116.33273 -0.20345746 -22.161269 -0.20345746 -22.161269 -18.426272 -116.33273 
0.8 -18.323465 -116.6153 -0.20651244 -22.436889 -0.20651244 -22.436889 -18.323465 -116.6153 
0.81 -18.222121 -116.89754 -0.209579 -22.712384 -0.209579 -22.712384 -18.222121 -116.89754 
0.82 -18.122205 -117.17946 -0.21265699 -22.987753 -0.21265699 -22.987753 -18.122205 -117.17946 
0.83 -18.023686 -117.46106 -0.21574626 -23.262995 -0.21574626 -23.262995 -18.023686 -117.46106 
0.84 -17.92653 -117.74235 -0.21884663 -23.538111 -0.21884663 -23.538111 -17.92653 -117.74235 
0.85 -17.830707 -118.02333 -0.22195796 -23.813098 -0.22195796 -23.813098 -17.830707 -118.02333 
0.86 -17.736188 -118.304 -0.22508007 -24.087958 -0.22508007 -24.087958 -17.736188 -118.304 
0.87 -17.642944 -118.58437 -0.22821281 -24.362689 -0.22821281 -24.362689 -17.642944 -118.58437 
0.88 -17.550946 -118.86444 -0.23135601 -24.63729 -0.23135601 -24.63729 -17.550946 -118.86444 
0.89 -17.460169 -119.14422 -0.2345095 -24.911761 -0.2345095 -24.911761 -17.460169 -119.14422 
0.9 -17.370586 -119.42371 -0.23767311 -25.186102 -0.23767311 -25.186102 -17.370586 -119.42371 
0.91 -17.282173 -119.7029 -0.24084667 -25.460313 -0.24084667 -25.460313 -17.282173 -119.7029 
0.92 -17.194905 -119.98182 -0.24403002 -25.734392 -0.24403002 -25.734392 -17.194905 -119.98182 
0.93 -17.108759 -120.26045 -0.24722298 -26.008339 -0.24722298 -26.008339 -17.108759 -120.26045 
0.94 -17.023712 -120.5388 -0.25042538 -26.282153 -0.25042538 -26.282153 -17.023712 -120.5388 
0.95 -16.939742 -120.81688 -0.25363705 -26.555835 -0.25363705 -26.555835 -16.939742 -120.81688 
0.96 -16.856828 -121.09468 -0.25685781 -26.829384 -0.25685781 -26.829384 -16.856828 -121.09468 
0.97 -16.774949 -121.37221 -0.26008748 -27.102799 -0.26008748 -27.102799 -16.774949 -121.37221 
0.98 -16.694086 -121.64947 -0.2633259 -27.376079 -0.2633259 -27.376079 -16.694086 -121.64947 
0.99 -16.61422 -121.92647 -0.26657287 -27.649226 -0.26657287 -27.649226 -16.61422 -121.92647 
1 -16.53533 -122.2032 -0.26982822 -27.922237 -0.26982822 -27.922237 -16.53533 -122.2032 
1.01 -16.4574 -122.47967 -0.27309178 -28.195113 -0.27309178 -28.195113 -16.4574 -122.47967 
1.02 -16.380411 -122.75587 -0.27636336 -28.467853 -0.27636336 -28.467853 -16.380411 -122.75587 
1.03 -16.304346 -123.03183 -0.27964278 -28.740456 -0.27964278 -28.740456 -16.304346 -123.03183 
1.04 -16.229189 -123.30752 -0.28292986 -29.012924 -0.28292986 -29.012924 -16.229189 -123.30752 
1.05 -16.154924 -123.58296 -0.28622442 -29.285254 -0.28622442 -29.285254 -16.154924 -123.58296 
1.06 -16.081534 -123.85815 -0.28952627 -29.557447 -0.28952627 -29.557447 -16.081534 -123.85815 
1.07 -16.009005 -124.13309 -0.29283524 -29.829503 -0.29283524 -29.829503 -16.009005 -124.13309 
1.08 -15.937321 -124.40777 -0.29615113 -30.101421 -0.29615113 -30.101421 -15.937321 -124.40777 
1.09 -15.866468 -124.68221 -0.29947375 -30.3732 -0.29947375 -30.3732 -15.866468 -124.68221 
1.1 -15.796433 -124.95641 -0.30280294 -30.644841 -0.30280294 -30.644841 -15.796433 -124.95641 
1.11 -15.727201 -125.23036 -0.30613849 -30.916343 -0.30613849 -30.916343 -15.727201 -125.23036 
1.12 -15.658759 -125.50407 -0.30948022 -31.187706 -0.30948022 -31.187706 -15.658759 -125.50407 
1.13 -15.591094 -125.77753 -0.31282795 -31.45893 -0.31282795 -31.45893 -15.591094 -125.77753 
1.14 -15.524194 -126.05076 -0.31618149 -31.730014 -0.31618149 -31.730014 -15.524194 -126.05076 
1.15 -15.458046 -126.32374 -0.31954064 -32.000959 -0.31954064 -32.000959 -15.458046 -126.32374 
1.16 -15.392638 -126.59649 -0.32290523 -32.271763 -0.32290523 -32.271763 -15.392638 -126.59649 
1.17 -15.327959 -126.869 -0.32627506 -32.542427 -0.32627506 -32.542427 -15.327959 -126.869 
1.18 -15.263997 -127.14128 -0.32964994 -32.812951 -0.32964994 -32.812951 -15.263997 -127.14128 
1.19 -15.200742 -127.41333 -0.33302968 -33.083333 -0.33302968 -33.083333 -15.200742 -127.41333 
1.2 -15.138181 -127.68514 -0.3364141 -33.353575 -0.3364141 -33.353575 -15.138181 -127.68514 
1.21 -15.076306 -127.95672 -0.339803 -33.623676 -0.339803 -33.623676 -15.076306 -127.95672 
1.22 -15.015105 -128.22807 -0.34319619 -33.893636 -0.34319619 -33.893636 -15.015105 -128.22807 
1.23 -14.954569 -128.49919 -0.34659348 -34.163454 -0.34659348 -34.163454 -14.954569 -128.49919 
1.24 -14.894687 -128.77008 -0.34999469 -34.433131 -0.34999469 -34.433131 -14.894687 -128.77008 
1.25 -14.835451 -129.04074 -0.35339962 -34.702666 -0.35339962 -34.702666 -14.835451 -129.04074 
1.26 -14.77685 -129.31118 -0.35680807 -34.97206 -0.35680807 -34.97206 -14.77685 -129.31118 
1.27 -14.718876 -129.58139 -0.36021987 -35.241312 -0.36021987 -35.241312 -14.718876 -129.58139 
1.28 -14.66152 -129.85138 -0.36363481 -35.510421 -0.36363481 -35.510421 -14.66152 -129.85138 
1.29 -14.604773 -130.12115 -0.36705271 -35.779389 -0.36705271 -35.779389 -14.604773 -130.12115 
1.3 -14.548627 -130.39069 -0.37047337 -36.048215 -0.37047337 -36.048215 -14.548627 -130.39069 
1.31 -14.493074 -130.66001 -0.37389661 -36.316899 -0.37389661 -36.316899 -14.493074 -130.66001 
1.32 -14.438104 -130.92911 -0.37732223 -36.58544 -0.37732223 -36.58544 -14.438104 -130.92911 
1.33 -14.383711 -131.19799 -0.38075003 -36.85384 -0.38075003 -36.85384 -14.383711 -131.19799 
1.34 -14.329887 -131.46665 -0.38417984 -37.122097 -0.38417984 -37.122097 -14.329887 -131.46665 
1.35 -14.276623 -131.7351 -0.38761146 -37.390212 -0.38761146 -37.390212 -14.276623 -131.7351 
1.36 -14.223914 -132.00332 -0.39104469 -37.658184 -0.39104469 -37.658184 -14.223914 -132.00332 
1.37 -14.171751 -132.27133 -0.39447934 -37.926015 -0.39447934 -37.926015 -14.171751 -132.27133 
1.38 -14.120127 -132.53913 -0.39791523 -38.193704 -0.39791523 -38.193704 -14.120127 -132.53913 
1.39 -14.069035 -132.8067 -0.40135217 -38.46125 -0.40135217 -38.46125 -14.069035 -132.8067 
1.4 -14.018469 -133.07407 -0.40478995 -38.728654 -0.40478995 -38.728654 -14.018469 -133.07407 
1.41 -13.968422 -133.34122 -0.4082284 -38.995917 -0.4082284 -38.995917 -13.968422 -133.34122 
1.42 -13.918887 -133.60816 -0.41166732 -39.263037 -0.41166732 -39.263037 -13.918887 -133.60816 
1.43 -13.869859 -133.87489 -0.41510652 -39.530016 -0.41510652 -39.530016 -13.869859 -133.87489 
1.44 -13.82133 -134.14141 -0.41854582 -39.796853 -0.41854582 -39.796853 -13.82133 -134.14141 
1.45 -13.773295 -134.40771 -0.42198501 -40.063548 -0.42198501 -40.063548 -13.773295 -134.40771 
1.46 -13.725748 -134.67381 -0.42542392 -40.330102 -0.42542392 -40.330102 -13.725748 -134.67381 
1.47 -13.678683 -134.9397 -0.42886235 -40.596514 -0.42886235 -40.596514 -13.678683 -134.9397 
1.48 -13.632094 -135.20538 -0.43230012 -40.862786 -0.43230012 -40.862786 -13.632094 -135.20538 
1.49 -13.585976 -135.47085 -0.43573704 -41.128916 -0.43573704 -41.128916 -13.585976 -135.47085 
1.5 -13.540322 -135.73612 -0.43917291 -41.394905 -0.43917291 -41.394905 -13.540322 -135.73612 
1.51 -13.495128 -136.00118 -0.44260756 -41.660754 -0.44260756 -41.660754 -13.495128 -136.00118 
1.52 -13.450389 -136.26604 -0.44604078 -41.926462 -0.44604078 -41.926462 -13.450389 -136.26604 
1.53 -13.406099 -136.53069 -0.44947241 -42.19203 -0.44947241 -42.19203 -13.406099 -136.53069 
1.54 -13.362252 -136.79514 -0.45290225 -42.457458 -0.45290225 -42.457458 -13.362252 -136.79514 
1.55 -13.318845 -137.05938 -0.45633011 -42.722746 -0.45633011 -42.722746 -13.318845 -137.05938 
1.56 -13.275872 -137.32343 -0.45975581 -42.987894 -0.45975581 -42.987894 -13.275872 -137.32343 
1.57 -13.233328 -137.58727 -0.46317916 -43.252903 -0.46317916 -43.252903 -13.233328 -137.58727 
1.58 -13.191209 -137.85091 -0.46659998 -43.517772 -0.46659998 -43.517772 -13.191209 -137.85091 
1.59 -13.14951 -138.11435 -0.47001809 -43.782503 -0.47001809 -43.782503 -13.14951 -138.11435 
1.6 -13.108227 -138.37759 -0.4734333 -44.047095 -0.4734333 -44.047095 -13.108227 -138.37759 
1.61 -13.067354 -138.64063 -0.47684543 -44.311549 -0.47684543 -44.311549 -13.067354 -138.64063 
1.62 -13.026888 -138.90347 -0.4802543 -44.575865 -0.4802543 -44.575865 -13.026888 -138.90347 
1.63 -12.986825 -139.16612 -0.48365972 -44.840043 -0.48365972 -44.840043 -12.986825 -139.16612 
1.64 -12.94716 -139.42857 -0.48706151 -45.104084 -0.48706151 -45.104084 -12.94716 -139.42857 
1.65 -12.907889 -139.69082 -0.4904595 -45.367988 -0.4904595 -45.367988 -12.907889 -139.69082 
1.66 -12.869007 -139.95288 -0.4938535 -45.631754 -0.4938535 -45.631754 -12.869007 -139.95288 
1.67 -12.830512 -140.21475 -0.49724333 -45.895385 -0.49724333 -45.895385 -12.830512 -140.21475 
1.68 -12.792399 -140.47642 -0.50062881 -46.15888 -0.50062881 -46.15888 -12.792399 -140.47642 
1.69 -12.754665 -140.73789 -0.50400977 -46.422239 -0.50400977 -46.422239 -12.754665 -140.73789 
1.7 -12.717304 -140.99918 -0.50738603 -46.685462 -0.50738603 -46.685462 -12.717304 -140.99918 
1.71 -12.680315 -141.26027 -0.51075742 -46.948551 -0.51075742 -46.948551 -12.680315 -141.26027 
1.72 -12.643693 -141.52117 -0.51412374 -47.211506 -0.51412374 -47.211506 -12.643693 -141.52117 
1.73 -12.607434 -141.78188 -0.51748484 -47.474326 -0.51748484 -47.474326 -12.607434 -141.78188 
1.74 -12.571535 -142.0424 -0.52084054 -47.737013 -0.52084054 -47.737013 -12.571535 -142.0424 
1.75 -12.535993 -142.30273 -0.52419065 -47.999567 -0.52419065 -47.999567 -12.535993 -142.30273 
1.76 -12.500805 -142.56288 -0.52753501 -48.261987 -0.52753501 -48.261987 -12.500805 -142.56288 
1.77 -12.465966 -142.82283 -0.53087345 -48.524276 -0.53087345 -48.524276 -12.465966 -142.82283 
1.78 -12.431473 -143.0826 -0.5342058 -48.786433 -0.5342058 -48.786433 -12.431473 -143.0826 
1.79 -12.397325 -143.34218 -0.53753187 -49.048458 -0.53753187 -49.048458 -12.397325 -143.34218 
1.8 -12.363516 -143.60158 -0.54085152 -49.310352 -0.54085152 -49.310352 -12.363516 -143.60158 
1.81 -12.330045 -143.86079 -0.54416455 -49.572116 -0.54416455 -49.572116 -12.330045 -143.86079 
1.82 -12.296907 -144.11982 -0.54747081 -49.83375 -0.54747081 -49.83375 -12.296907 -144.11982 
1.83 -12.264101 -144.37866 -0.55077013 -50.095255 -0.55077013 -50.095255 -12.264101 -144.37866 
1.84 -12.231623 -144.63733 -0.55406234 -50.356631 -0.55406234 -50.356631 -12.231623 -144.63733 
1.85 -12.19947 -144.89581 -0.55734728 -50.617879 -0.55734728 -50.617879 -12.19947 -144.89581 
1.86 -12.167639 -145.1541 -0.56062478 -50.878998 -0.56062478 -50.878998 -12.167639 -145.1541 
1.87 -12.136128 -145.41222 -0.56389468 -51.139991 -0.56389468 -51.139991 -12.136128 -145.41222 
1.88 -12.104933 -145.67016 -0.56715681 -51.400856 -0.56715681 -51.400856 -12.104933 -145.67016 
1.89 -12.074053 -145.92792 -0.57041101 -51.661596 -0.57041101 -51.661596 -12.074053 -145.92792 
1.9 -12.043484 -146.1855 -0.57365712 -51.92221 -0.57365712 -51.92221 -12.043484 -146.1855 
1.91 -12.013224 -146.4429 -0.57689498 -52.182699 -0.57689498 -52.182699 -12.013224 -146.4429 
1.92 -11.98327 -146.70013 -0.58012443 -52.443064 -0.58012443 -52.443064 -11.98327 -146.70013 
1.93 -11.95362 -146.95718 -0.58334531 -52.703304 -0.58334531 -52.703304 -11.95362 -146.95718 
1.94 -11.92427 -147.21406 -0.58655746 -52.963422 -0.58655746 -52.963422 -11.92427 -147.21406 
1.95 -11.89522 -147.47076 -0.58976074 -53.223417 -0.58976074 -53.223417 -11.89522 -147.47076 
1.96 -11.866465 -147.72728 -0.59295497 -53.48329 -0.59295497 -53.48329 -11.866465 -147.72728 
1.97 -11.838004 -147.98364 -0.59614001 -53.743042 -0.59614001 -53.743042 -11.838004 -147.98364 
1.98 -11.809835 -148.23982 -0.59931571 -54.002673 -0.59931571 -54.002673 -11.809835 -148.23982 
1.99 -11.781955 -148.49583 -0.6024819 -54.262183 -0.6024819 -54.262183 -11.781955 -148.49583 
2 -11.754362 -148.75166 -0.60563844 -54.521575 -0.60563844 -54.521575 -11.754362 -148.75166 
2.01 -11.727054 -149.00733 -0.60878518 -54.780848 -0.60878518 -54.780848 -11.727054 -149.00733 
2.02 -11.700028 -149.26283 -0.61192198 -55.040003 -0.61192198 -55.040003 -11.700028 -149.26283 
2.03 -11.673282 -149.51816 -0.61504867 -55.29904 -0.61504867 -55.29904 -11.673282 -149.51816 
2.04 -11.646814 -149.77332 -0.61816511 -55.557961 -0.61816511 -55.557961 -11.646814 -149.77332 
2.05 -11.620623 -150.02832 -0.62127116 -55.816765 -0.62127116 -55.816765 -11.620623 -150.02832 
2.06 -11.594705 -150.28315 -0.62436667 -56.075455 -0.62436667 -56.075455 -11.594705 -150.28315 
2.07 -11.56906 -150.53781 -0.62745149 -56.334029 -0.62745149 -56.334029 -11.56906 -150.53781 
2.08 -11.543684 -150.79231 -0.63052549 -56.59249 -0.63052549 -56.59249 -11.543684 -150.79231 
2.09 -11.518577 -151.04664 -0.63358852 -56.850838 -0.63358852 -56.850838 -11.518577 -151.04664 
2.1 -11.493735 -151.30082 -0.63664044 -57.109073 -0.63664044 -57.109073 -11.493735 -151.30082 
2.11 -11.469157 -151.55482 -0.63968111 -57.367197 -0.63968111 -57.367197 -11.469157 -151.55482 
2.12 -11.444842 -151.80867 -0.64271039 -57.62521 -0.64271039 -57.62521 -11.444842 -151.80867 
2.13 -11.420787 -152.06236 -0.64572814 -57.883112 -0.64572814 -57.883112 -11.420787 -152.06236 
2.14 -11.396991 -152.31589 -0.64873423 -58.140905 -0.64873423 -58.140905 -11.396991 -152.31589 
2.15 -11.373452 -152.56925 -0.65172853 -58.39859 -0.65172853 -58.39859 -11.373452 -152.56925 
2.16 -11.350167 -152.82246 -0.65471088 -58.656167 -0.65471088 -58.656167 -11.350167 -152.82246 
2.17 -11.327136 -153.07552 -0.65768118 -58.913636 -0.65768118 -58.913636 -11.327136 -153.07552 
2.18 -11.304356 -153.32841 -0.66063927 -59.171 -0.66063927 -59.171 -11.304356 -153.32841 
2.19 -11.281826 -153.58115 -0.66358503 -59.428257 -0.66358503 -59.428257 -11.281826 -153.58115 
2.2 -11.259545 -153.83373 -0.66651834 -59.68541 -0.66651834 -59.68541 -11.259545 -153.83373 
2.21 -11.23751 -154.08616 -0.66943906 -59.94246 -0.66943906 -59.94246 -11.23751 -154.08616 
2.22 -11.21572 -154.33844 -0.67234706 -60.199406 -0.67234706 -60.199406 -11.21572 -154.33844 
2.23 -11.194173 -154.59056 -0.67524222 -60.45625 -0.67524222 -60.45625 -11.194173 -154.59056 
2.24 -11.172868 -154.84254 -0.67812442 -60.712992 -0.67812442 -60.712992 -11.172868 -154.84254 
2.25 -11.151804 -155.09436 -0.68099352 -60.969634 -0.68099352 -60.969634 -11.151804 -155.09436 
2.26 -11.130978 -155.34603 -0.68384942 -61.226176 -0.68384942 -61.226176 -11.130978 -155.34603 
2.27 -11.110389 -155.59755 -0.68669198 -61.482619 -0.68669198 -61.482619 -11.110389 -155.59755 
2.28 -11.090036 -155.84892 -0.68952108 -61.738965 -0.68952108 -61.738965 -11.090036 -155.84892 
2.29 -11.069918 -156.10015 -0.69233661 -61.995213 -0.69233661 -61.995213 -11.069918 -156.10015 
2.3 -11.050032 -156.35122 -0.69513846 -62.251364 -0.69513846 -62.251364 -11.050032 -156.35122 
2.31 -11.030379 -156.60216 -0.69792649 -62.50742 -0.69792649 -62.50742 -11.030379 -156.60216 
2.32 -11.010955 -156.85294 -0.7007006 -62.763382 -0.7007006 -62.763382 -11.010955 -156.85294 
2.33 -10.99176 -157.10359 -0.70346068 -63.01925 -0.70346068 -63.01925 -10.99176 -157.10359 
2.34 -10.972792 -157.35408 -0.7062066 -63.275025 -0.7062066 -63.275025 -10.972792 -157.35408 
2.35 -10.954051 -157.60444 -0.70893827 -63.530708 -0.70893827 -63.530708 -10.954051 -157.60444 
2.36 -10.935535 -157.85466 -0.71165556 -63.7863 -0.71165556 -63.7863 -10.935535 -157.85466 
2.37 -10.917242 -158.10473 -0.71435837 -64.041802 -0.71435837 -64.041802 -10.917242 -158.10473 
2.38 -10.899171 -158.35466 -0.7170466 -64.297215 -0.7170466 -64.297215 -10.899171 -158.35466 
2.39 -10.881322 -158.60446 -0.71972013 -64.552539 -0.71972013 -64.552539 -10.881322 -158.60446 
2.4 -10.863692 -158.85411 -0.72237886 -64.807776 -0.72237886 -64.807776 -10.863692 -158.85411 
2.41 -10.846281 -159.10363 -0.72502269 -65.062927 -0.72502269 -65.062927 -10.846281 -159.10363 
2.42 -10.829088 -159.35301 -0.72765151 -65.317992 -0.72765151 -65.317992 -10.829088 -159.35301 
2.43 -10.81211 -159.60226 -0.73026522 -65.572972 -0.73026522 -65.572972 -10.81211 -159.60226 
2.44 -10.795349 -159.85137 -0.73286372 -65.827869 -0.73286372 -65.827869 -10.795349 -159.85137 
2.45 -10.778801 -160.10035 -0.73544692 -66.082683 -0.73544692 -66.082683 -10.778801 -160.10035 
2.46 -10.762466 -160.34919 -0.73801471 -66.337415 -0.73801471 -66.337415 -10.762466 -160.34919 
2.47 -10.746343 -160.5979 -0.740567 -66.592067 -0.740567 -66.592067 -10.746343 -160.5979 
2.48 -10.730431 -160.84648 -0.7431037 -66.846638 -0.7431037 -66.846638 -10.730431 -160.84648 
2.49 -10.714728 -161.09493 -0.7456247 -67.101131 -0.7456247 -67.101131 -10.714728 -161.09493 
2.5 -10.699235 -161.34325 -0.74812993 -67.355545 -0.74812993 -67.355545 -10.699235 -161.34325 
2.51 -10.683949 -161.59144 -0.75061928 -67.609883 -0.75061928 -67.609883 -10.683949 -161.59144 
2.52 -10.668869 -161.8395 -0.75309266 -67.864145 -0.75309266 -67.864145 -10.668869 -161.8395 
2.53 -10.653996 -162.08744 -0.75555 -68.118331 -0.75555 -68.118331 -10.653996 -162.08744 
2.54 -10.639327 -162.33525 -0.7579912 -68.372444 -0.7579912 -68.372444 -10.639327 -162.33525 
2.55 -10.624862 -162.58293 -0.76041617 -68.626483 -0.76041617 -68.626483 -10.624862 -162.58293 
2.56 -10.610599 -162.83049 -0.76282484 -68.880451 -0.76282484 -68.880451 -10.610599 -162.83049 
2.57 -10.596539 -163.07792 -0.76521711 -69.134347 -0.76521711 -69.134347 -10.596539 -163.07792 
2.58 -10.58268 -163.32524 -0.76759291 -69.388173 -0.76759291 -69.388173 -10.58268 -163.32524 
2.59 -10.569021 -163.57243 -0.76995216 -69.641931 -0.76995216 -69.641931 -10.569021 -163.57243 
2.6 -10.555561 -163.8195 -0.77229477 -69.89562 -0.77229477 -69.89562 -10.555561 -163.8195 
2.61 -10.542299 -164.06645 -0.77462067 -70.149242 -0.77462067 -70.149242 -10.542299 -164.06645 
2.62 -10.529235 -164.31328 -0.77692979 -70.402798 -0.77692979 -70.402798 -10.529235 -164.31328 
2.63 -10.516368 -164.55999 -0.77922204 -70.656289 -0.77922204 -70.656289 -10.516368 -164.55999 
2.64 -10.503696 -164.80658 -0.78149735 -70.909715 -0.78149735 -70.909715 -10.503696 -164.80658 
2.65 -10.49122 -165.05306 -0.78375566 -71.163079 -0.78375566 -71.163079 -10.49122 -165.05306 
2.66 -10.478938 -165.29942 -0.78599688 -71.416381 -0.78599688 -71.416381 -10.478938 -165.29942 
2.67 -10.466849 -165.54567 -0.78822096 -71.669622 -0.78822096 -71.669622 -10.466849 -165.54567 
2.68 -10.454953 -165.7918 -0.79042781 -71.922803 -0.79042781 -71.922803 -10.454953 -165.7918 
2.69 -10.443249 -166.03782 -0.79261739 -72.175925 -0.79261739 -72.175925 -10.443249 -166.03782 
2.7 -10.431737 -166.28372 -0.79478961 -72.428989 -0.79478961 -72.428989 -10.431737 -166.28372 
2.71 -10.420415 -166.52952 -0.79694441 -72.681996 -0.79694441 -72.681996 -10.420415 -166.52952 
2.72 -10.409283 -166.7752 -0.79908174 -72.934948 -0.79908174 -72.934948 -10.409283 -166.7752 
2.73 -10.398339 -167.02078 -0.80120152 -73.187845 -0.80120152 -73.187845 -10.398339 -167.02078 
2.74 -10.387585 -167.26624 -0.80330371 -73.440688 -0.80330371 -73.440688 -10.387585 -167.26624 
2.75 -10.377018 -167.5116 -0.80538823 -73.693478 -0.80538823 -73.693478 -10.377018 -167.5116 
2.76 -10.366638 -167.75685 -0.80745504 -73.946217 -0.80745504 -73.946217 -10.366638 -167.75685 
2.77 -10.356445 -168.00199 -0.80950407 -74.198905 -0.80950407 -74.198905 -10.356445 -168.00199 
2.78 -10.346437 -168.24703 -0.81153528 -74.451544 -0.81153528 -74.451544 -10.346437 -168.24703 
2.79 -10.336615 -168.49197 -0.8135486 -74.704135 -0.8135486 -74.704135 -10.336615 -168.49197 
2.8 -10.326978 -168.7368 -0.81554399 -74.956678 -0.81554399 -74.956678 -10.326978 -168.7368 
2.81 -10.317524 -168.98153 -0.8175214 -75.209174 -0.8175214 -75.209174 -10.317524 -168.98153 
2.82 -10.308254 -169.22615 -0.81948077 -75.461626 -0.81948077 -75.461626 -10.308254 -169.22615 
2.83 -10.299167 -169.47068 -0.82142206 -75.714033 -0.82142206 -75.714033 -10.299167 -169.47068 
2.84 -10.290262 -169.7151 -0.82334522 -75.966397 -0.82334522 -75.966397 -10.290262 -169.7151 
2.85 -10.281539 -169.95942 -0.82525021 -76.21872 -0.82525021 -76.21872 -10.281539 -169.95942 
2.86 -10.272997 -170.20365 -0.82713697 -76.471001 -0.82713697 -76.471001 -10.272997 -170.20365 
2.87 -10.264636 -170.44778 -0.82900548 -76.723242 -0.82900548 -76.723242 -10.264636 -170.44778 
2.88 -10.256455 -170.69181 -0.83085569 -76.975445 -0.83085569 -76.975445 -10.256455 -170.69181 
2.89 -10.248453 -170.93575 -0.83268755 -77.227609 -0.83268755 -77.227609 -10.248453 -170.93575 
2.9 -10.240631 -171.17958 -0.83450103 -77.479738 -0.83450103 -77.479738 -10.240631 -171.17958 
2.91 -10.232988 -171.42333 -0.8362961 -77.73183 -0.8362961 -77.73183 -10.232988 -171.42333 
2.92 -10.225523 -171.66698 -0.83807271 -77.983888 -0.83807271 -77.983888 -10.225523 -171.66698 
2.93 -10.218236 -171.91054 -0.83983084 -78.235913 -0.83983084 -78.235913 -10.218236 -171.91054 
2.94 -10.211126 -172.15401 -0.84157045 -78.487905 -0.84157045 -78.487905 -10.211126 -172.15401 
2.95 -10.204193 -172.39739 -0.8432915 -78.739866 -0.8432915 -78.739866 -10.204193 -172.39739 
2.96 -10.197436 -172.64067 -0.84499397 -78.991797 -0.84499397 -78.991797 -10.197436 -172.64067 
2.97 -10.190856 -172.88387 -0.84667784 -79.243699 -0.84667784 -79.243699 -10.190856 -172.88387 
2.98 -10.184451 -173.12698 -0.84834306 -79.495573 -0.84834306 -79.495573 -10.184451 -173.12698 
2.99 -10.178222 -173.37 -0.84998962 -79.74742 -0.84998962 -79.74742 -10.178222 -173.37 
3 -10.172168 -173.61293 -0.85161749 -79.999241 -0.85161749 -79.999241 -10.172168 -173.61293 
3.01 -10.166288 -173.85577 -0.85322665 -80.251038 -0.85322665 -80.251038 -10.166288 -173.85577 
3.02 -10.160582 -174.09854 -0.85481707 -80.502811 -0.85481707 -80.502811 -10.160582 -174.09854 
3.03 -10.155051 -174.34121 -0.85638874 -80.754561 -0.85638874 -80.754561 -10.155051 -174.34121 
3.04 -10.149692 -174.58381 -0.85794163 -81.00629 -0.85794163 -81.00629 -10.149692 -174.58381 
3.05 -10.144507 -174.82632 -0.85947573 -81.257999 -0.85947573 -81.257999 -10.144507 -174.82632 
3.06 -10.139495 -175.06874 -0.86099103 -81.509688 -0.86099103 -81.509688 -10.139495 -175.06874 
3.07 -10.134656 -175.31109 -0.8624875 -81.761359 -0.8624875 -81.761359 -10.134656 -175.31109 
3.08 -10.129988 -175.55336 -0.86396513 -82.013013 -0.86396513 -82.013013 -10.129988 -175.55336 
3.09 -10.125493 -175.79554 -0.86542391 -82.264651 -0.86542391 -82.264651 -10.125493 -175.79554 
3.1 -10.12117 -176.03765 -0.86686384 -82.516275 -0.86686384 -82.516275 -10.12117 -176.03765 
3.11 -10.117018 -176.27968 -0.86828489 -82.767884 -0.86828489 -82.767884 -10.117018 -176.27968 
3.12 -10.113037 -176.52163 -0.86968706 -83.019481 -0.86968706 -83.019481 -10.113037 -176.52163 
3.13 -10.109227 -176.7635 -0.87107035 -83.271066 -0.87107035 -83.271066 -10.109227 -176.7635 
3.14 -10.105588 -177.0053 -0.87243475 -83.522641 -0.87243475 -83.522641 -10.105588 -177.0053 
3.15 -10.102119 -177.24702 -0.87378025 -83.774207 -0.87378025 -83.774207 -10.102119 -177.24702 
3.16 -10.09882 -177.48867 -0.87510686 -84.025764 -0.87510686 -84.025764 -10.09882 -177.48867 
3.17 -10.095692 -177.73024 -0.87641456 -84.277314 -0.87641456 -84.277314 -10.095692 -177.73024 
3.18 -10.092733 -177.97174 -0.87770337 -84.528857 -0.87770337 -84.528857 -10.092733 -177.97174 