! AWR Design Environment (18789) Tue Jul  1 17:04:14 2025
! Document = 'bsf'
! nPorts: 2, nXvals: 400

# GHz S DB R 50
!Freq DBS11 AngS11 DBS21 AngS21 DBS12 AngS12 DBS22 AngS22 
0.01 -52.33225 89.716569 -2.538403e-05 -0.28343112 -2.538403e-05 -0.28343112 -52.33225 89.716569 
0.02 -46.30991 89.433011 -0.0001015777 -0.56698898 -0.0001015777 -0.56698898 -46.30991 89.433011 
0.03 -42.785184 89.1492 -0.00022870588 -0.8508005 -0.00022870588 -0.8508005 -42.785184 89.1492 
0.04 -40.282347 88.865007 -0.00040697706 -1.134993 -0.00040697706 -1.134993 -40.282347 88.865007 
0.05 -38.338923 88.580306 -0.00063668392 -1.4196943 -0.00063668392 -1.4196943 -38.338923 88.580306 
0.06 -36.74891 88.294967 -0.00091820418 -1.7050329 -0.00091820418 -1.7050329 -36.74891 88.294967 
0.07 -35.40242 88.008861 -0.0012520016 -1.9911385 -0.0012520016 -1.9911385 -35.40242 88.008861 
0.08 -34.23386 87.721858 -0.0016386273 -2.2781416 -0.0016386273 -2.2781416 -34.23386 87.721858 
0.09 -33.20092 87.433826 -0.0020787213 -2.5661743 -0.0020787213 -2.5661743 -33.20092 87.433826 
0.1 -32.274707 87.14463 -0.0025730144 -2.8553699 -0.0025730144 -2.8553699 -32.274707 87.14463 
0.11 -31.434616 86.854136 -0.0031223298 -3.1458637 -0.0031223298 -3.1458637 -31.434616 86.854136 
0.12 -30.66543 86.562207 -0.0037275861 -3.4377928 -0.0037275861 -3.4377928 -30.66543 86.562207 
0.13 -29.955591 86.268704 -0.0043897994 -3.7312964 -0.0043897994 -3.7312964 -29.955591 86.268704 
0.14 -29.296116 85.973484 -0.0051100863 -4.0265163 -0.0051100863 -4.0265163 -29.296116 85.973484 
0.15 -28.67988 85.676403 -0.0058896669 -4.3235967 -0.0058896669 -4.3235967 -28.67988 85.676403 
0.16 -28.101142 85.377315 -0.0067298689 -4.6226845 -0.0067298689 -4.6226845 -28.101142 85.377315 
0.17 -27.555201 85.07607 -0.0076321305 -4.9239301 -0.0076321305 -4.9239301 -27.555201 85.07607 
0.18 -27.038164 84.772513 -0.0085980052 -5.2274868 -0.0085980052 -5.2274868 -27.038164 84.772513 
0.19 -26.54677 84.466488 -0.0096291663 -5.5335119 -0.0096291663 -5.5335119 -26.54677 84.466488 
0.2 -26.078256 84.157834 -0.010727411 -5.8421662 -0.010727411 -5.8421662 -26.078256 84.157834 
0.21 -25.630266 83.846385 -0.011894667 -6.153615 -0.011894667 -6.153615 -25.630266 83.846385 
0.22 -25.20077 83.531972 -0.013132997 -6.4680279 -0.013132997 -6.4680279 -25.20077 83.531972 
0.23 -24.788007 83.214421 -0.014444604 -6.7855793 -0.014444604 -6.7855793 -24.788007 83.214421 
0.24 -24.390442 82.893551 -0.015831841 -7.1064489 -0.015831841 -7.1064489 -24.390442 82.893551 
0.25 -24.006727 82.569178 -0.017297216 -7.4308218 -0.017297216 -7.4308218 -24.006727 82.569178 
0.26 -23.63567 82.241111 -0.018843396 -7.758889 -0.018843396 -7.758889 -23.63567 82.241111 
0.27 -23.276214 81.909152 -0.020473223 -8.0908477 -0.020473223 -8.0908477 -23.276214 81.909152 
0.28 -22.927416 81.573098 -0.022189715 -8.4269018 -0.022189715 -8.4269018 -22.927416 81.573098 
0.29 -22.588433 81.232737 -0.023996081 -8.7672626 -0.023996081 -8.7672626 -22.588433 81.232737 
0.3 -22.258504 80.887851 -0.025895724 -9.1121486 -0.025895724 -9.1121486 -22.258504 80.887851 
0.31 -21.936945 80.538213 -0.027892259 -9.4617868 -0.027892259 -9.4617868 -21.936945 80.538213 
0.32 -21.623134 80.183587 -0.029989519 -9.8164126 -0.029989519 -9.8164126 -21.623134 80.183587 
0.33 -21.316508 79.823729 -0.032191568 -10.176271 -0.032191568 -10.176271 -21.316508 79.823729 
0.34 -21.01655 79.458384 -0.034502714 -10.541616 -0.034502714 -10.541616 -21.01655 79.458384 
0.35 -20.722792 79.087288 -0.036927522 -10.912712 -0.036927522 -10.912712 -20.722792 79.087288 
0.36 -20.434801 78.710163 -0.039470827 -11.289837 -0.039470827 -11.289837 -20.434801 78.710163 
0.37 -20.152181 78.326722 -0.042137751 -11.673278 -0.042137751 -11.673278 -20.152181 78.326722 
0.38 -19.874567 77.936665 -0.044933715 -12.063335 -0.044933715 -12.063335 -19.874567 77.936665 
0.39 -19.601622 77.539676 -0.04786446 -12.460324 -0.04786446 -12.460324 -19.601622 77.539676 
0.4 -19.333033 77.135427 -0.050936062 -12.864573 -0.050936062 -12.864573 -19.333033 77.135427 
0.41 -19.068511 76.723574 -0.054154946 -13.276426 -0.054154946 -13.276426 -19.068511 76.723574 
0.42 -18.807789 76.303756 -0.057527915 -13.696244 -0.057527915 -13.696244 -18.807789 76.303756 
0.43 -18.550617 75.875595 -0.061062158 -14.124405 -0.061062158 -14.124405 -18.550617 75.875595 
0.44 -18.296763 75.438693 -0.064765278 -14.561307 -0.064765278 -14.561307 -18.296763 75.438693 
0.45 -18.046012 74.992633 -0.068645312 -15.007367 -0.068645312 -15.007367 -18.046012 74.992633 
0.46 -17.798162 74.536975 -0.072710748 -15.463025 -0.072710748 -15.463025 -17.798162 74.536975 
0.47 -17.553025 74.071258 -0.076970554 -15.928742 -0.076970554 -15.928742 -17.553025 74.071258 
0.48 -17.310429 73.594993 -0.081434193 -16.405007 -0.081434193 -16.405007 -17.310429 73.594993 
0.49 -17.070209 73.107667 -0.086111648 -16.892333 -0.086111648 -16.892333 -17.070209 73.107667 
0.5 -16.832215 72.608737 -0.091013443 -17.391263 -0.091013443 -17.391263 -16.832215 72.608737 
0.51 -16.596307 72.097628 -0.096150664 -17.902372 -0.096150664 -17.902372 -16.596307 72.097628 
0.52 -16.362355 71.573733 -0.10153497 -18.426267 -0.10153497 -18.426267 -16.362355 71.573733 
0.53 -16.13024 71.03641 -0.10717863 -18.96359 -0.10717863 -18.96359 -16.13024 71.03641 
0.54 -15.899852 70.484975 -0.11309451 -19.515025 -0.11309451 -19.515025 -15.899852 70.484975 
0.55 -15.671092 69.918704 -0.11929609 -20.081296 -0.11929609 -20.081296 -15.671092 69.918704 
0.56 -15.443871 69.336827 -0.12579748 -20.663173 -0.12579748 -20.663173 -15.443871 69.336827 
0.57 -15.218107 68.738526 -0.13261339 -21.261474 -0.13261339 -21.261474 -15.218107 68.738526 
0.58 -14.993733 68.122926 -0.13975913 -21.877074 -0.13975913 -21.877074 -14.993733 68.122926 
0.59 -14.77069 67.489096 -0.14725059 -22.510904 -0.14725059 -22.510904 -14.77069 67.489096 
0.6 -14.54893 66.836042 -0.15510417 -23.163958 -0.15510417 -23.163958 -14.54893 66.836042 
0.61 -14.328417 66.162697 -0.16333673 -23.837303 -0.16333673 -23.837303 -14.328417 66.162697 
0.62 -14.109129 65.467923 -0.17196548 -24.532077 -0.17196548 -24.532077 -14.109129 65.467923 
0.63 -13.891058 64.750493 -0.18100788 -25.249507 -0.18100788 -25.249507 -13.891058 64.750493 
0.64 -13.674209 64.009093 -0.19048143 -25.990907 -0.19048143 -25.990907 -13.674209 64.009093 
0.65 -13.458607 63.242304 -0.20040349 -26.757696 -0.20040349 -26.757696 -13.458607 63.242304 
0.66 -13.244293 62.448597 -0.21079096 -27.551403 -0.21079096 -27.551403 -13.244293 62.448597 
0.67 -13.031331 61.626319 -0.22165989 -28.373681 -0.22165989 -28.373681 -13.031331 61.626319 
0.68 -12.819808 60.773678 -0.23302506 -29.226322 -0.23302506 -29.226322 -12.819808 60.773678 
0.69 -12.609842 59.88873 -0.24489929 -30.11127 -0.24489929 -30.11127 -12.609842 59.88873 
0.7 -12.401579 58.969355 -0.25729274 -31.030645 -0.25729274 -31.030645 -12.401579 58.969355 
0.71 -12.195204 58.013242 -0.27021187 -31.986758 -0.27021187 -31.986758 -12.195204 58.013242 
0.72 -11.990946 57.017858 -0.28365823 -32.982142 -0.28365823 -32.982142 -11.990946 57.017858 
0.73 -11.789085 55.980421 -0.29762691 -34.019579 -0.29762691 -34.019579 -11.789085 55.980421 
0.74 -11.589961 54.897865 -0.3121045 -35.102135 -0.3121045 -35.102135 -11.589961 54.897865 
0.75 -11.393987 53.766794 -0.3270667 -36.233206 -0.3270667 -36.233206 -11.393987 53.766794 
0.76 -11.201665 52.583434 -0.34247512 -37.416566 -0.34247512 -37.416566 -11.201665 52.583434 
0.77 -11.013603 51.343571 -0.35827335 -38.656429 -0.35827335 -38.656429 -11.013603 51.343571 
0.78 -10.83054 50.042469 -0.374382 -39.957531 -0.374382 -39.957531 -10.83054 50.042469 
0.79 -10.653375 48.674783 -0.39069244 -41.325217 -0.39069244 -41.325217 -10.653375 48.674783 
0.8 -10.483211 47.234434 -0.40705888 -42.765566 -0.40705888 -42.765566 -10.483211 47.234434 
0.81 -10.321405 45.71446 -0.42328841 -44.28554 -0.42328841 -44.28554 -10.321405 45.71446 
0.82 -10.169642 44.106826 -0.43912844 -45.893174 -0.43912844 -45.893174 -10.169642 44.106826 
0.83 -10.030031 42.402171 -0.45425094 -47.597829 -0.45425094 -47.597829 -10.030031 42.402171 
0.84 -9.9052394 40.589489 -0.46823264 -49.410511 -0.46823264 -49.410511 -9.9052394 40.589489 
0.85 -9.7986852 38.655685 -0.48053032 -51.344315 -0.48053032 -51.344315 -9.7986852 38.655685 
0.86 -9.7148095 36.585006 -0.49045044 -53.414994 -0.49045044 -53.414994 -9.7148095 36.585006 
0.87 -9.6594842 34.358235 -0.49711222 -55.641765 -0.49711222 -55.641765 -9.6594842 34.358235 
0.88 -9.6406294 31.951592 -0.49940436 -58.048408 -0.49940436 -58.048408 -9.6406294 31.951592 
0.89 -9.6691855 29.335184 -0.49593719 -60.664816 -0.49593719 -60.664816 -9.6691855 29.335184 
0.9 -9.7606991 26.470782 -0.48499647 -63.529218 -0.48499647 -63.529218 -9.7606991 26.470782 
0.91 -9.9380344 23.308585 -0.46451487 -66.691415 -0.46451487 -66.691415 -9.9380344 23.308585 
0.92 -10.236277 19.782449 -0.4320982 -70.217551 -0.4320982 -70.217551 -10.236277 19.782449 
0.93 -10.712255 15.802733 -0.3851909 -74.197267 -0.3851909 -74.197267 -10.712255 15.802733 
0.94 -11.464895 11.245514 -0.32156894 -78.754486 -0.32156894 -78.754486 -11.464895 11.245514 
0.95 -12.685024 5.9364348 -0.24057764 -84.063565 -0.24057764 -84.063565 -12.685024 5.9364348 
0.96 -14.806148 -0.37260464 -0.1460329 -90.372605 -0.1460329 -90.372605 -14.806148 -0.37260464 
0.97 -19.183435 -8.0330796 -0.052732058 -98.03308 -0.052732058 -98.03308 -19.183435 -8.0330796 
0.98 -42.356415 -17.522491 -0.0002524384 -107.52249 -0.0002524384 -107.52249 -42.356415 -17.522491 
0.99 -17.460857 150.59452 -0.078636569 -119.40548 -0.078636569 -119.40548 -17.460857 150.59452 
1 -9.9664348 135.90779 -0.46132043 -134.09221 -0.46132043 -134.09221 -9.9664348 135.90779 
1.01 -5.5966931 118.74602 -1.4004114 -151.25398 -1.4004114 -151.25398 -5.5966931 118.74602 
1.02 -2.9184342 100.67776 -3.104151 -169.32224 -3.104151 -169.32224 -2.9184342 100.67776 
1.03 -1.4111507 83.831312 -5.5685961 173.83131 -5.5685961 173.83131 -1.4111507 83.831312 
1.04 -0.64339001 69.476147 -8.6108242 159.47615 -8.6108242 159.47615 -0.64339001 69.476147 
1.05 -0.27951543 57.69513 -12.052793 147.69513 -12.052793 147.69513 -0.27951543 57.69513 
1.06 -0.11530014 48.001541 -15.817067 138.00154 -15.817067 138.00154 -0.11530014 48.001541 
1.07 -0.044425942 39.843014 -19.923671 129.84301 -19.923671 129.84301 -0.044425942 39.843014 
1.08 -0.015536832 32.775437 -24.471985 122.77544 -24.471985 122.77544 -0.015536832 32.775437 
1.09 -0.0047140593 26.477352 -29.646249 116.47735 -29.646249 116.47735 -0.0047140593 26.477352 
1.1 -0.0011523531 20.722439 -35.762564 110.72244 -35.762564 110.72244 -0.0011523531 20.722439 
1.11 -0.00019827568 15.35042 -43.405248 105.35042 -43.405248 105.35042 -0.00019827568 15.35042 
1.12 -1.7892728e-05 10.244929 -53.851086 100.24493 -53.851086 100.24493 -1.7892728e-05 10.244929 
1.13 -3.4728368e-07 5.3179935 -70.970999 95.317994 -70.970999 95.317994 -3.4728369e-07 5.3179935 
1.14 -1.3404152e-13 0.49921282 -135.12829 90.499213 -135.12829 90.499213 -1.3500585e-13 0.49921282 
1.15 -1.0487842e-07 -4.2720847 -76.170982 -94.272085 -76.170982 -94.272085 -1.0487842e-07 -4.2720847 
1.16 -9.0597028e-06 -9.0529598 -56.806708 -99.05296 -56.806708 -99.05296 -9.0597028e-06 -9.0529598 
1.17 -0.00011464593 -13.902171 -45.784314 -103.90217 -45.784314 -103.90217 -0.00011464593 -13.902171 
1.18 -0.00069011041 -18.885388 -37.989002 -108.88539 -37.989002 -108.88539 -0.00069011041 -18.885388 
1.19 -0.002804888 -24.080946 -31.90009 -114.08095 -31.90009 -114.08095 -0.002804888 -24.080946 
1.2 -0.0089690311 -29.586717 -26.854872 -119.58672 -26.854872 -119.58672 -0.0089690311 -29.586717 
1.21 -0.024463798 -35.528573 -22.504831 -125.52857 -22.504831 -125.52857 -0.024463798 -35.528573 
1.22 -0.059720337 -42.070363 -18.646447 -132.07036 -18.646447 -132.07036 -0.059720337 -42.070363 
1.23 -0.13453859 -49.423582 -15.15647 -139.42358 -15.15647 -139.42358 -0.13453859 -49.423582 
1.24 -0.28532536 -57.849977 -11.966321 -147.84998 -11.966321 -147.84998 -0.28532536 -57.849977 
1.25 -0.5764647 -67.639197 -9.0551605 -157.6392 -9.0551605 -157.6392 -0.5764647 -67.639197 
1.26 -1.1146816 -79.025982 -6.4517612 -169.02598 -6.4517612 -169.02598 -1.1146816 -79.025982 
1.27 -2.0579625 -92.01 -4.2318926 177.99 -4.2318926 177.99 -2.0579625 -92.01 
1.28 -3.6021708 -106.12846 -2.4895019 163.87154 -2.4895019 163.87154 -3.6021708 -106.12846 
1.29 -5.9472462 -120.42309 -1.2741165 149.57691 -1.2741165 149.57691 -5.9472462 -120.42309 
1.3 -9.3174705 -133.81141 -0.54048186 136.18859 -0.54048186 136.18859 -9.3174705 -133.81141 
1.31 -14.215572 -145.58111 -0.1677205 124.41889 -0.1677205 124.41889 -14.215572 -145.58111 
1.32 -22.841474 -155.54144 -0.022634355 114.45856 -0.022634355 114.45856 -22.841474 -155.54144 
1.33 -32.158705 16.153677 -0.0026426882 106.15368 -0.0026426882 106.15368 -32.158705 16.153677 
1.34 -20.065973 9.2247695 -0.042986742 99.224769 -0.042986742 99.224769 -20.065973 9.2247695 
1.35 -16.125054 3.3924035 -0.10730828 93.392404 -0.10730828 93.392404 -16.125054 3.3924035 
1.36 -13.992005 -1.5777189 -0.17676325 88.422281 -0.17676325 88.422281 -13.992005 -1.5777189 
1.37 -12.654453 -5.8687792 -0.24232539 84.131221 -0.24232539 84.131221 -12.654453 -5.8687792 
1.38 -11.75314 -9.620236 -0.30018796 80.379764 -0.30018796 80.379764 -11.75314 -9.620236 
1.39 -11.120405 -12.937614 -0.34921056 77.062386 -0.34921056 77.062386 -11.120405 -12.937614 
1.4 -10.665522 -15.901089 -0.38955077 74.098911 -0.38955077 74.098911 -10.665522 -15.901089 
1.41 -10.334541 -18.57213 -0.42194584 71.42787 -0.42194584 71.42787 -10.334541 -18.57213 
1.42 -10.093184 -20.998416 -0.44734349 69.001584 -0.44734349 69.001584 -10.093184 -20.998416 
1.43 -9.9185686 -23.217385 -0.46671781 66.782615 -0.46671781 66.782615 -9.9185686 -23.217385 
1.44 -9.7948174 -25.258808 -0.48098308 64.741192 -0.48098308 64.741192 -9.7948174 -25.258808 
1.45 -9.7105636 -27.146652 -0.49095833 62.853348 -0.49095833 62.853348 -9.7105636 -27.146652 
1.46 -9.6574574 -28.900435 -0.49735808 61.099565 -0.49735808 61.099565 -9.6574574 -28.900435 
1.47 -9.6292298 -30.536233 -0.50079562 59.463767 -0.50079562 59.463767 -9.6292298 -30.536233 
1.48 -9.6210864 -32.067421 -0.50179198 57.932579 -0.50179198 57.932579 -9.6210864 -32.067421 
1.49 -9.6293009 -33.505239 -0.50078693 56.494761 -0.50078693 56.494761 -9.6293009 -33.505239 
1.5 -9.6509363 -34.859214 -0.49815 55.140786 -0.49815 55.140786 -9.6509363 -34.859214 
1.51 -9.6836494 -36.137492 -0.49419076 53.862508 -0.49419076 53.862508 -9.6836494 -36.137492 
1.52 -9.7255504 -37.347088 -0.4891681 52.652912 -0.4891681 52.652912 -9.7255504 -37.347088 
1.53 -9.7751003 -38.494091 -0.48329813 51.505909 -0.48329813 51.505909 -9.7751003 -38.494091 
1.54 -9.8310352 -39.583816 -0.47676108 50.416184 -0.47676108 50.416184 -9.8310352 -39.583816 
1.55 -9.892309 -40.620936 -0.46970709 49.379064 -0.46970709 49.379064 -9.892309 -40.620936 
1.56 -9.9580503 -41.609576 -0.46226109 48.390424 -0.46226109 48.390424 -9.9580503 -41.609576 
1.57 -10.027528 -42.553403 -0.45452693 47.446597 -0.45452693 47.446597 -10.027528 -42.553403 
1.58 -10.100128 -43.455688 -0.44659078 46.544312 -0.44659078 46.544312 -10.100128 -43.455688 
1.59 -10.175326 -44.319362 -0.43852404 45.680638 -0.43852404 45.680638 -10.175326 -44.319362 
1.6 -10.25268 -45.147064 -0.43038573 44.852936 -0.43038573 44.852936 -10.25268 -45.147064 
1.61 -10.331811 -45.941178 -0.42222447 44.058822 -0.42222447 44.058822 -10.331811 -45.941178 
1.62 -10.412394 -46.703865 -0.4140802 43.296135 -0.4140802 43.296135 -10.412394 -46.703865 
1.63 -10.494149 -47.437091 -0.40598557 42.562909 -0.40598557 42.562909 -10.494149 -47.437091 
1.64 -10.576835 -48.142649 -0.39796711 41.857351 -0.39796711 41.857351 -10.576835 -48.142649 
1.65 -10.660246 -48.822179 -0.39004622 41.177821 -0.39004622 41.177821 -10.660246 -48.822179 
1.66 -10.7442 -49.477188 -0.38224 40.522812 -0.38224 40.522812 -10.7442 -49.477188 
1.67 -10.828542 -50.109058 -0.37456195 39.890942 -0.37456195 39.890942 -10.828542 -50.109058 
1.68 -10.913135 -50.719066 -0.36702254 39.280934 -0.36702254 39.280934 -10.913135 -50.719066 
1.69 -10.997862 -51.30839 -0.3596297 38.69161 -0.3596297 38.69161 -10.997862 -51.30839 
1.7 -11.08262 -51.878121 -0.35238928 38.121879 -0.35238928 38.121879 -11.08262 -51.878121 
1.71 -11.167319 -52.429271 -0.34530532 37.570729 -0.34530532 37.570729 -11.167319 -52.429271 
1.72 -11.251883 -52.962779 -0.33838042 37.037221 -0.33838042 37.037221 -11.251883 -52.962779 
1.73 -11.336242 -53.47952 -0.33161594 36.52048 -0.33161594 36.52048 -11.336242 -53.47952 
1.74 -11.420339 -53.98031 -0.32501224 36.01969 -0.32501224 36.01969 -11.420339 -53.98031 
1.75 -11.504121 -54.465908 -0.31856884 35.534092 -0.31856884 35.534092 -11.504121 -54.465908 
1.76 -11.587545 -54.937028 -0.31228455 35.062972 -0.31228455 35.062972 -11.587545 -54.937028 
1.77 -11.670571 -55.394335 -0.30615767 34.605665 -0.30615767 34.605665 -11.670571 -55.394335 
1.78 -11.753167 -55.838454 -0.30018599 34.161546 -0.30018599 34.161546 -11.753167 -55.838454 
1.79 -11.835304 -56.269972 -0.29436699 33.730028 -0.29436699 33.730028 -11.835304 -56.269972 
1.8 -11.916957 -56.689438 -0.28869783 33.310562 -0.28869783 33.310562 -11.916957 -56.689438 
1.81 -11.998105 -57.097371 -0.28317546 32.902629 -0.28317546 32.902629 -11.998105 -57.097371 
1.82 -12.078731 -57.494259 -0.27779666 32.505741 -0.27779666 32.505741 -12.078731 -57.494259 
1.83 -12.158819 -57.880563 -0.2725581 32.119437 -0.2725581 32.119437 -12.158819 -57.880563 
1.84 -12.238356 -58.256717 -0.26745634 31.743283 -0.26745634 31.743283 -12.238356 -58.256717 
1.85 -12.317333 -58.623131 -0.26248792 31.376869 -0.26248792 31.376869 -12.317333 -58.623131 
1.86 -12.395741 -58.980193 -0.25764932 31.019807 -0.25764932 31.019807 -12.395741 -58.980193 
1.87 -12.473573 -59.328269 -0.25293706 30.671731 -0.25293706 30.671731 -12.473573 -59.328269 
1.88 -12.550825 -59.667709 -0.24834763 30.332291 -0.24834763 30.332291 -12.550825 -59.667709 
1.89 -12.627493 -59.998841 -0.24387758 30.001159 -0.24387758 30.001159 -12.627493 -59.998841 
1.9 -12.703573 -60.321978 -0.23952349 29.678022 -0.23952349 29.678022 -12.703573 -60.321978 
1.91 -12.779066 -60.637417 -0.235282 29.362583 -0.235282 29.362583 -12.779066 -60.637417 
1.92 -12.85397 -60.94544 -0.23114981 29.05456 -0.23114981 29.05456 -12.85397 -60.94544 
1.93 -12.928286 -61.246316 -0.22712367 28.753684 -0.22712367 28.753684 -12.928286 -61.246316 
1.94 -13.002015 -61.540298 -0.22320044 28.459702 -0.22320044 28.459702 -13.002015 -61.540298 
1.95 -13.075159 -61.827631 -0.21937701 28.172369 -0.21937701 28.172369 -13.075159 -61.827631 
1.96 -13.14772 -62.108546 -0.21565039 27.891454 -0.21565039 27.891454 -13.14772 -62.108546 
1.97 -13.219701 -62.383263 -0.21201763 27.616737 -0.21201763 27.616737 -13.219701 -62.383263 
1.98 -13.291106 -62.651993 -0.20847589 27.348007 -0.20847589 27.348007 -13.291106 -62.651993 
1.99 -13.361938 -62.914937 -0.20502239 27.085063 -0.20502239 27.085063 -13.361938 -62.914937 
2 -13.432202 -63.172286 -0.20165447 26.827714 -0.20165447 26.827714 -13.432202 -63.172286 
2.01 -13.501901 -63.424225 -0.19836949 26.575775 -0.19836949 26.575775 -13.501901 -63.424225 
2.02 -13.571042 -63.670928 -0.19516495 26.329072 -0.19516495 26.329072 -13.571042 -63.670928 
2.03 -13.639628 -63.912563 -0.19203839 26.087437 -0.19203839 26.087437 -13.639628 -63.912563 
2.04 -13.707665 -64.14929 -0.18898745 25.85071 -0.18898745 25.85071 -13.707665 -64.14929 
2.05 -13.775157 -64.381264 -0.18600982 25.618736 -0.18600982 25.618736 -13.775157 -64.381264 
2.06 -13.842111 -64.60863 -0.1831033 25.39137 -0.1831033 25.39137 -13.842111 -64.60863 
2.07 -13.908533 -64.831532 -0.18026572 25.168468 -0.18026572 25.168468 -13.908533 -64.831532 
2.08 -13.974427 -65.050103 -0.17749503 24.949897 -0.17749503 24.949897 -13.974427 -65.050103 
2.09 -14.039799 -65.264474 -0.1747892 24.735526 -0.1747892 24.735526 -14.039799 -65.264474 
2.1 -14.104655 -65.474769 -0.1721463 24.525231 -0.1721463 24.525231 -14.104655 -65.474769 
2.11 -14.169001 -65.681108 -0.16956445 24.318892 -0.16956445 24.318892 -14.169001 -65.681108 
2.12 -14.232843 -65.883606 -0.16704185 24.116394 -0.16704185 24.116394 -14.232843 -65.883606 
2.13 -14.296187 -66.082373 -0.16457673 23.917627 -0.16457673 23.917627 -14.296187 -66.082373 
2.14 -14.359039 -66.277517 -0.16216741 23.722483 -0.16216741 23.722483 -14.359039 -66.277517 
2.15 -14.421403 -66.469137 -0.15981226 23.530863 -0.15981226 23.530863 -14.421403 -66.469137 
2.16 -14.483288 -66.657334 -0.15750968 23.342666 -0.15750968 23.342666 -14.483288 -66.657334 
2.17 -14.544697 -66.842202 -0.15525815 23.157798 -0.15525815 23.157798 -14.544697 -66.842202 
2.18 -14.605637 -67.023832 -0.15305621 22.976168 -0.15305621 22.976168 -14.605637 -67.023832 
2.19 -14.666114 -67.202311 -0.15090241 22.797689 -0.15090241 22.797689 -14.666114 -67.202311 
2.2 -14.726133 -67.377724 -0.14879539 22.622276 -0.14879539 22.622276 -14.726133 -67.377724 
2.21 -14.785701 -67.550153 -0.14673382 22.449847 -0.14673382 22.449847 -14.785701 -67.550153 
2.22 -14.844823 -67.719677 -0.1447164 22.280323 -0.1447164 22.280323 -14.844823 -67.719677 
2.23 -14.903504 -67.886371 -0.1427419 22.113629 -0.1427419 22.113629 -14.903504 -67.886371 
2.24 -14.96175 -68.050308 -0.1408091 21.949692 -0.1408091 21.949692 -14.96175 -68.050308 
2.25 -15.019567 -68.21156 -0.13891686 21.78844 -0.13891686 21.78844 -15.019567 -68.21156 
2.26 -15.07696 -68.370194 -0.13706404 21.629806 -0.13706404 21.629806 -15.07696 -68.370194 
2.27 -15.133934 -68.526276 -0.13524956 21.473724 -0.13524956 21.473724 -15.133934 -68.526276 
2.28 -15.190495 -68.67987 -0.13347237 21.32013 -0.13347237 21.32013 -15.190495 -68.67987 
2.29 -15.246647 -68.831037 -0.13173146 21.168963 -0.13173146 21.168963 -15.246647 -68.831037 
2.3 -15.302397 -68.979838 -0.13002583 21.020162 -0.13002583 21.020162 -15.302397 -68.979838 
2.31 -15.35775 -69.126329 -0.12835455 20.873671 -0.12835455 20.873671 -15.35775 -69.126329 
2.32 -15.412709 -69.270566 -0.12671668 20.729434 -0.12671668 20.729434 -15.412709 -69.270566 
2.33 -15.467281 -69.412603 -0.12511135 20.587397 -0.12511135 20.587397 -15.467281 -69.412603 
2.34 -15.521471 -69.552493 -0.12353769 20.447507 -0.12353769 20.447507 -15.521471 -69.552493 
2.35 -15.575282 -69.690285 -0.12199486 20.309715 -0.12199486 20.309715 -15.575282 -69.690285 
2.36 -15.628721 -69.826028 -0.12048207 20.173972 -0.12048207 20.173972 -15.628721 -69.826028 
2.37 -15.681791 -69.959771 -0.11899852 20.040229 -0.11899852 20.040229 -15.681791 -69.959771 
2.38 -15.734497 -70.091558 -0.11754347 19.908442 -0.11754347 19.908442 -15.734497 -70.091558 
2.39 -15.786845 -70.221434 -0.11611617 19.778566 -0.11611617 19.778566 -15.786845 -70.221434 
2.4 -15.838838 -70.349442 -0.11471593 19.650558 -0.11471593 19.650558 -15.838838 -70.349442 
2.41 -15.89048 -70.475625 -0.11334205 19.524375 -0.11334205 19.524375 -15.89048 -70.475625 
2.42 -15.941777 -70.600022 -0.11199387 19.399978 -0.11199387 19.399978 -15.941777 -70.600022 
2.43 -15.992733 -70.722673 -0.11067074 19.277327 -0.11067074 19.277327 -15.992733 -70.722673 
2.44 -16.043351 -70.843616 -0.10937204 19.156384 -0.10937204 19.156384 -16.043351 -70.843616 
2.45 -16.093637 -70.962888 -0.10809715 19.037112 -0.10809715 19.037112 -16.093637 -70.962888 
2.46 -16.143594 -71.080526 -0.10684551 18.919474 -0.10684551 18.919474 -16.143594 -71.080526 
2.47 -16.193226 -71.196563 -0.10561652 18.803437 -0.10561652 18.803437 -16.193226 -71.196563 
2.48 -16.242537 -71.311034 -0.10440965 18.688966 -0.10440965 18.688966 -16.242537 -71.311034 
2.49 -16.291532 -71.423971 -0.10322435 18.576029 -0.10322435 18.576029 -16.291532 -71.423971 
2.5 -16.340213 -71.535408 -0.10206011 18.464592 -0.10206011 18.464592 -16.340213 -71.535408 
2.51 -16.388586 -71.645374 -0.10091641 18.354626 -0.10091641 18.354626 -16.388586 -71.645374 
2.52 -16.436653 -71.753901 -0.099792781 18.246099 -0.099792781 18.246099 -16.436653 -71.753901 
2.53 -16.484418 -71.861017 -0.098688736 18.138983 -0.098688736 18.138983 -16.484418 -71.861017 
2.54 -16.531886 -71.966751 -0.097603815 18.033249 -0.097603815 18.033249 -16.531886 -71.966751 
2.55 -16.579059 -72.071131 -0.096537572 17.928869 -0.096537572 17.928869 -16.579059 -72.071131 
2.56 -16.625941 -72.174185 -0.095489571 17.825815 -0.095489571 17.825815 -16.625941 -72.174185 
2.57 -16.672536 -72.275937 -0.094459391 17.724063 -0.094459391 17.724063 -16.672536 -72.275937 
2.58 -16.718847 -72.376414 -0.093446622 17.623586 -0.093446622 17.623586 -16.718847 -72.376414 
2.59 -16.764877 -72.475641 -0.092450865 17.524359 -0.092450865 17.524359 -16.764877 -72.475641 
2.6 -16.81063 -72.573642 -0.091471733 17.426358 -0.091471733 17.426358 -16.81063 -72.573642 
2.61 -16.856108 -72.670441 -0.090508851 17.329559 -0.090508851 17.329559 -16.856108 -72.670441 
2.62 -16.901316 -72.766061 -0.089561852 17.233939 -0.089561852 17.233939 -16.901316 -72.766061 
2.63 -16.946257 -72.860524 -0.088630382 17.139476 -0.088630382 17.139476 -16.946257 -72.860524 
2.64 -16.990932 -72.953852 -0.087714096 17.046148 -0.087714096 17.046148 -16.990932 -72.953852 
2.65 -17.035347 -73.046066 -0.086812657 16.953934 -0.086812657 16.953934 -17.035347 -73.046066 
2.66 -17.079502 -73.137188 -0.08592574 16.862812 -0.08592574 16.862812 -17.079502 -73.137188 
2.67 -17.123402 -73.227236 -0.085053027 16.772764 -0.085053027 16.772764 -17.123402 -73.227236 
2.68 -17.16705 -73.316232 -0.084194209 16.683768 -0.084194209 16.683768 -17.16705 -73.316232 
2.69 -17.210448 -73.404194 -0.083348985 16.595806 -0.083348985 16.595806 -17.210448 -73.404194 
2.7 -17.253599 -73.491142 -0.082517064 16.508858 -0.082517064 16.508858 -17.253599 -73.491142 
2.71 -17.296505 -73.577092 -0.08169816 16.422908 -0.08169816 16.422908 -17.296505 -73.577092 
2.72 -17.339171 -73.662064 -0.080891998 16.337936 -0.080891998 16.337936 -17.339171 -73.662064 
2.73 -17.381597 -73.746074 -0.080098306 16.253926 -0.080098306 16.253926 -17.381597 -73.746074 
2.74 -17.423788 -73.82914 -0.079316825 16.17086 -0.079316825 16.17086 -17.423788 -73.82914 
2.75 -17.465745 -73.911279 -0.078547296 16.088721 -0.078547296 16.088721 -17.465745 -73.911279 
2.76 -17.507471 -73.992505 -0.077789473 16.007495 -0.077789473 16.007495 -17.507471 -73.992505 
2.77 -17.548969 -74.072836 -0.077043113 15.927164 -0.077043113 15.927164 -17.548969 -74.072836 
2.78 -17.590242 -74.152287 -0.076307979 15.847713 -0.076307979 15.847713 -17.590242 -74.152287 
2.79 -17.631291 -74.230873 -0.075583843 15.769127 -0.075583843 15.769127 -17.631291 -74.230873 
2.8 -17.672118 -74.308608 -0.074870479 15.691392 -0.074870479 15.691392 -17.672118 -74.308608 
2.81 -17.712728 -74.385506 -0.07416767 15.614494 -0.07416767 15.614494 -17.712728 -74.385506 
2.82 -17.753121 -74.461583 -0.073475203 15.538417 -0.073475203 15.538417 -17.753121 -74.461583 
2.83 -17.7933 -74.536852 -0.07279287 15.463148 -0.07279287 15.463148 -17.7933 -74.536852 
2.84 -17.833268 -74.611326 -0.07212047 15.388674 -0.07212047 15.388674 -17.833268 -74.611326 
2.85 -17.873026 -74.685018 -0.071457806 15.314982 -0.071457806 15.314982 -17.873026 -74.685018 
2.86 -17.912577 -74.757941 -0.070804685 15.242059 -0.070804685 15.242059 -17.912577 -74.757941 
2.87 -17.951924 -74.830107 -0.070160921 15.169893 -0.070160921 15.169893 -17.951924 -74.830107 
2.88 -17.991067 -74.90153 -0.069526329 15.09847 -0.069526329 15.09847 -17.991067 -74.90153 
2.89 -18.03001 -74.972221 -0.068900733 15.027779 -0.068900733 15.027779 -18.03001 -74.972221 
2.9 -18.068753 -75.042191 -0.068283958 14.957809 -0.068283958 14.957809 -18.068753 -75.042191 
2.91 -18.107301 -75.111453 -0.067675835 14.888547 -0.067675835 14.888547 -18.107301 -75.111453 
2.92 -18.145654 -75.180017 -0.067076197 14.819983 -0.067076197 14.819983 -18.145654 -75.180017 
2.93 -18.183814 -75.247894 -0.066484884 14.752106 -0.066484884 14.752106 -18.183814 -75.247894 
2.94 -18.221784 -75.315096 -0.065901738 14.684904 -0.065901738 14.684904 -18.221784 -75.315096 
2.95 -18.259565 -75.381632 -0.065326605 14.618368 -0.065326605 14.618368 -18.259565 -75.381632 
2.96 -18.297159 -75.447513 -0.064759335 14.552487 -0.064759335 14.552487 -18.297159 -75.447513 
2.97 -18.334568 -75.512749 -0.06419978 14.487251 -0.06419978 14.487251 -18.334568 -75.512749 
2.98 -18.371794 -75.577351 -0.063647799 14.422649 -0.063647799 14.422649 -18.371794 -75.577351 
2.99 -18.408839 -75.641327 -0.06310325 14.358673 -0.06310325 14.358673 -18.408839 -75.641327 
3 -18.445705 -75.704687 -0.062565997 14.295313 -0.062565997 14.295313 -18.445705 -75.704687 
3.01 -18.482393 -75.76744 -0.062035906 14.23256 -0.062035906 14.23256 -18.482393 -75.76744 
3.02 -18.518905 -75.829596 -0.061512848 14.170404 -0.061512848 14.170404 -18.518905 -75.829596 
3.03 -18.555243 -75.891163 -0.060996695 14.108837 -0.060996695 14.108837 -18.555243 -75.891163 
3.04 -18.591408 -75.952151 -0.060487322 14.047849 -0.060487322 14.047849 -18.591408 -75.952151 
3.05 -18.627403 -76.012567 -0.059984608 13.987433 -0.059984608 13.987433 -18.627403 -76.012567 
3.06 -18.663228 -76.07242 -0.059488434 13.92758 -0.059488434 13.92758 -18.663228 -76.07242 
3.07 -18.698886 -76.131719 -0.058998683 13.868281 -0.058998683 13.868281 -18.698886 -76.131719 
3.08 -18.734378 -76.190471 -0.058515242 13.809529 -0.058515242 13.809529 -18.734378 -76.190471 
3.09 -18.769705 -76.248684 -0.058038 13.751316 -0.058038 13.751316 -18.769705 -76.248684 
3.1 -18.80487 -76.306366 -0.057566849 13.693634 -0.057566849 13.693634 -18.80487 -76.306366 
3.11 -18.839874 -76.363524 -0.057101681 13.636476 -0.057101681 13.636476 -18.839874 -76.363524 
3.12 -18.874718 -76.420167 -0.056642394 13.579833 -0.056642394 13.579833 -18.874718 -76.420167 
3.13 -18.909403 -76.4763 -0.056188885 13.5237 -0.056188885 13.5237 -18.909403 -76.4763 