! AWR Design Environment (18789) Tue Jul  1 16:58:32 2025
! Document = 'bpf'
! nPorts: 2, nXvals: 400

# GHz S DB R 50
!Freq DBS11 AngS11 DBS21 AngS21 DBS12 AngS12 DBS22 AngS22 
0.01 -4.8216373e-16 -0.16561312 -161.14253 -90.165613 -161.14253 -90.165613 -4.8216373e-16 -0.16561312 
0.02 -2.1215204e-14 -0.33130499 -143.07462 -90.331305 -143.07462 -90.331305 -2.2179532e-14 -0.33130499 
0.03 -2.4397485e-13 -0.4971545 -132.49895 -90.497154 -132.49895 -90.497154 -2.4397485e-13 -0.4971545 
0.04 -1.3775418e-12 -0.66324077 -124.98836 -90.663241 -124.98836 -90.663241 -1.3775418e-12 -0.66324077 
0.05 -5.2748712e-12 -0.82964334 -119.15539 -90.829643 -119.15539 -90.829643 -5.2763177e-12 -0.82964334 
0.06 -1.5833775e-11 -0.99644224 -114.38206 -90.996442 -114.38206 -90.996442 -1.5833775e-11 -0.99644224 
0.07 -4.0171954e-11 -1.1637182 -110.33868 -91.163718 -110.33868 -91.163718 -4.0170025e-11 -1.1637182 
0.08 -9.0143885e-11 -1.3315526 -106.82847 -91.331553 -106.82847 -91.331553 -9.0145814e-11 -1.3315526 
0.09 -1.8421933e-10 -1.500028 -103.72449 -91.500028 -103.72449 -91.500028 -1.8421933e-10 -1.500028 
0.1 -3.497688e-10 -1.6692278 -100.94006 -91.669228 -100.94006 -91.669228 -3.4976784e-10 -1.6692278 
0.11 -6.2582056e-10 -1.8392367 -98.413335 -91.839237 -98.413335 -91.839237 -6.2582104e-10 -1.8392367 
0.12 -1.0663933e-09 -2.0101408 -96.098668 -92.010141 -96.098668 -92.010141 -1.0663933e-09 -2.0101408 
0.13 -1.7444052e-09 -2.1820275 -93.961368 -92.182028 -93.961368 -92.182028 -1.7444072e-09 -2.1820275 
0.14 -2.7563695e-09 -2.3549862 -91.974469 -92.354986 -91.974469 -92.354986 -2.756369e-09 -2.3549862 
0.15 -4.2279101e-09 -2.5291081 -90.116585 -92.529108 -90.116585 -92.529108 -4.2279101e-09 -2.5291081 
0.16 -6.3202967e-09 -2.704486 -88.370468 -92.704486 -88.370468 -92.704486 -6.3202977e-09 -2.704486 
0.17 -9.2381318e-09 -2.8812155 -86.722002 -92.881216 -86.722002 -92.881216 -9.2381313e-09 -2.8812155 
0.18 -1.3238408e-08 -3.0593942 -85.159486 -93.059394 -85.159486 -93.059394 -1.3238406e-08 -3.0593942 
0.19 -1.8641175e-08 -3.2391224 -83.67311 -93.239122 -83.67311 -93.239122 -1.8641173e-08 -3.2391224 
0.2 -2.5842083e-08 -3.4205033 -82.254568 -93.420503 -82.254568 -93.420503 -2.5842083e-08 -3.4205033 
0.21 -3.5327133e-08 -3.6036428 -80.896759 -93.603643 -80.896759 -93.603643 -3.5327133e-08 -3.6036428 
0.22 -4.7690025e-08 -3.7886505 -79.593568 -93.78865 -79.593568 -93.78865 -4.7690026e-08 -3.7886505 
0.23 -6.3652567e-08 -3.9756392 -78.339684 -93.975639 -78.339684 -93.975639 -6.3652567e-08 -3.9756392 
0.24 -8.4088676e-08 -4.1647255 -77.130468 -94.164726 -77.130468 -94.164726 -8.4088678e-08 -4.1647255 
0.25 -1.1005264e-07 -4.3560302 -75.961839 -94.35603 -75.961839 -94.35603 -1.1005264e-07 -4.3560302 
0.26 -1.4281234e-07 -4.5496784 -74.830186 -94.549678 -74.830186 -94.549678 -1.4281234e-07 -4.5496784 
0.27 -1.8388845e-07 -4.7457996 -73.732299 -94.7458 -73.732299 -94.7458 -1.8388845e-07 -4.7457996 
0.28 -2.3510055e-07 -4.9445286 -72.665307 -94.944529 -72.665307 -94.944529 -2.3510055e-07 -4.9445286 
0.29 -2.9862155e-07 -5.1460055 -71.626632 -95.146005 -71.626632 -95.146005 -2.9862155e-07 -5.1460055 
0.3 -3.7704192e-07 -5.350376 -70.613947 -95.350376 -70.613947 -95.350376 -3.7704192e-07 -5.350376 
0.31 -4.7344546e-07 -5.5577922 -69.625144 -95.557792 -69.625144 -95.557792 -4.7344546e-07 -5.5577922 
0.32 -5.9149892e-07 -5.7684126 -68.658304 -95.768413 -68.658304 -95.768413 -5.9149892e-07 -5.7684126 
0.33 -7.3555801e-07 -5.9824029 -67.711674 -95.982403 -67.711674 -95.982403 -7.3555801e-07 -5.9824029 
0.34 -9.1079291e-07 -6.1999363 -66.783647 -96.199936 -66.783647 -96.199936 -9.1079291e-07 -6.1999363 
0.35 -1.123337e-06 -6.4211942 -65.872743 -96.421194 -65.872743 -96.421194 -1.123337e-06 -6.4211942 
0.36 -1.3804636e-06 -6.6463669 -64.977594 -96.646367 -64.977594 -96.646367 -1.3804636e-06 -6.6463669 
0.37 -1.6907955e-06 -6.8756539 -64.096933 -96.875654 -64.096933 -96.875654 -1.6907955e-06 -6.8756539 
0.38 -2.0645548e-06 -7.1092651 -63.22958 -97.109265 -63.22958 -97.109265 -2.0645548e-06 -7.1092651 
0.39 -2.5138601e-06 -7.347421 -62.374433 -97.347421 -62.374433 -97.347421 -2.5138601e-06 -7.347421 
0.4 -3.0530813e-06 -7.5903541 -61.530461 -97.590354 -61.530461 -97.590354 -3.0530813e-06 -7.5903541 
0.41 -3.6992638e-06 -7.8383093 -60.696692 -97.838309 -60.696692 -97.838309 -3.6992638e-06 -7.8383093 
0.42 -4.472635e-06 -8.0915454 -59.872211 -98.091545 -59.872211 -98.091545 -4.472635e-06 -8.0915454 
0.43 -5.3972132e-06 -8.3503357 -59.05615 -98.350336 -59.05615 -98.350336 -5.3972132e-06 -8.3503357 
0.44 -6.5015375e-06 -8.6149696 -58.247686 -98.61497 -58.247686 -98.61497 -6.5015375e-06 -8.6149696 
0.45 -7.8195462e-06 -8.8857536 -57.446031 -98.885754 -57.446031 -98.885754 -7.8195462e-06 -8.8857536 
0.46 -9.3916359e-06 -9.1630129 -56.650435 -99.163013 -56.650435 -99.163013 -9.3916359e-06 -9.1630129 
0.47 -1.126594e-05 -9.447093 -55.860174 -99.447093 -55.860174 -99.447093 -1.126594e-05 -9.447093 
0.48 -1.3499877e-05 -9.7383613 -55.074552 -99.738361 -55.074552 -99.738361 -1.3499877e-05 -9.7383613 
0.49 -1.6162029e-05 -10.037209 -54.292892 -100.03721 -54.292892 -100.03721 -1.6162029e-05 -10.037209 
0.5 -1.9334422e-05 -10.344053 -53.514541 -100.34405 -53.514541 -100.34405 -1.9334422e-05 -10.344053 
0.51 -2.3115309e-05 -10.65934 -52.738858 -100.65934 -52.738858 -100.65934 -2.3115309e-05 -10.65934 
0.52 -2.7622571e-05 -10.983547 -51.965216 -100.98355 -51.965216 -100.98355 -2.7622571e-05 -10.983547 
0.53 -3.2997877e-05 -11.317182 -51.193 -101.31718 -51.193 -101.31718 -3.2997877e-05 -11.317182 
0.54 -3.9411799e-05 -11.660795 -50.4216 -101.6608 -50.4216 -101.6608 -3.9411799e-05 -11.660795 
0.55 -4.7070113e-05 -12.014974 -49.650414 -102.01497 -49.650414 -102.01497 -4.7070113e-05 -12.014974 
0.56 -5.6221579e-05 -12.380353 -48.878841 -102.38035 -48.878841 -102.38035 -5.6221579e-05 -12.380353 
0.57 -6.716759e-05 -12.757613 -48.106279 -102.75761 -48.106279 -102.75761 -6.716759e-05 -12.757613 
0.58 -8.0274162e-05 -13.147492 -47.332125 -103.14749 -47.332125 -103.14749 -8.0274162e-05 -13.147492 
0.59 -9.5986902e-05 -13.550789 -46.555771 -103.55079 -46.555771 -103.55079 -9.5986902e-05 -13.550789 
0.6 -0.00011484974 -13.968368 -45.7766 -103.96837 -45.7766 -103.96837 -0.00011484974 -13.968368 
0.61 -0.00013752849 -14.401169 -44.993985 -104.40117 -44.993985 -104.40117 -0.00013752849 -14.401169 
0.62 -0.00016484054 -14.850214 -44.207285 -104.85021 -44.207285 -104.85021 -0.00016484054 -14.850214 
0.63 -0.00019779251 -15.31662 -43.415844 -105.31662 -43.415844 -105.31662 -0.00019779251 -15.31662 
0.64 -0.00023762818 -15.801606 -42.618983 -105.80161 -42.618983 -105.80161 -0.00023762818 -15.801606 
0.65 -0.00028588965 -16.306509 -41.816002 -106.30651 -41.816002 -106.30651 -0.00028588965 -16.306509 
0.66 -0.00034449603 -16.8328 -41.006173 -106.8328 -41.006173 -106.8328 -0.00034449603 -16.8328 
0.67 -0.0004158449 -17.382099 -40.188737 -107.3821 -40.188737 -107.3821 -0.0004158449 -17.382099 
0.68 -0.00050294402 -17.956196 -39.362898 -107.9562 -39.362898 -107.9562 -0.00050294402 -17.956196 
0.69 -0.00060958312 -18.557075 -38.527819 -108.55707 -38.527819 -108.55707 -0.00060958312 -18.557075 
0.7 -0.00074055943 -19.186944 -37.682614 -109.18694 -37.682614 -109.18694 -0.00074055943 -19.186944 
0.71 -0.0009019755 -19.848267 -36.826347 -109.84827 -36.826347 -109.84827 -0.0009019755 -19.848267 
0.72 -0.001101635 -20.543804 -35.958017 -110.5438 -35.958017 -110.5438 -0.001101635 -20.543804 
0.73 -0.0013495728 -21.276658 -35.076555 -111.27666 -35.076555 -111.27666 -0.0013495728 -21.276658 
0.74 -0.0016587692 -22.050336 -34.180813 -112.05034 -34.180813 -112.05034 -0.0016587692 -22.050336 
0.75 -0.0020461211 -22.868816 -33.269553 -112.86882 -33.269553 -112.86882 -0.0020461211 -22.868816 
0.76 -0.002533773 -23.736632 -32.341433 -113.73663 -32.341433 -113.73663 -0.002533773 -23.736632 
0.77 -0.0031509568 -24.658985 -31.394994 -114.65898 -31.394994 -114.65898 -0.0031509568 -24.658985 
0.78 -0.0039365606 -25.641866 -30.428642 -115.64187 -30.428642 -115.64187 -0.0039365606 -25.641866 
0.79 -0.0049427504 -26.692228 -29.440627 -116.69223 -29.440627 -116.69223 -0.0049427504 -26.692228 
0.8 -0.0062401345 -27.81819 -28.429023 -117.81819 -28.429023 -117.81819 -0.0062401345 -27.81819 
0.81 -0.0079252121 -29.029302 -27.391696 -119.0293 -27.391696 -119.0293 -0.0079252121 -29.029302 
0.82 -0.010131256 -30.336888 -26.326275 -120.33689 -26.326275 -120.33689 -0.010131256 -30.336888 
0.83 -0.013044428 -31.754495 -25.230113 -121.7545 -25.230113 -121.7545 -0.013044428 -31.754495 
0.84 -0.016928003 -33.298479 -24.100247 -123.29848 -24.100247 -123.29848 -0.016928003 -33.298479 
0.85 -0.022159364 -34.988796 -22.933345 -124.9888 -22.933345 -124.9888 -0.022159364 -34.988796 
0.86 -0.029287495 -36.850068 -21.725656 -126.85007 -21.725656 -126.85007 -0.029287495 -36.850068 
0.87 -0.039124023 -38.913052 -20.472955 -128.91305 -20.472955 -128.91305 -0.039124023 -38.913052 
0.88 -0.052890367 -41.216676 -19.170496 -131.21668 -19.170496 -131.21668 -0.052890367 -41.216676 
0.89 -0.072460866 -43.810916 -17.812988 -133.81092 -17.812988 -133.81092 -0.072460866 -43.810916 
0.9 -0.10077409 -46.760889 -16.394644 -136.76089 -16.394644 -136.76089 -0.10077409 -46.760889 
0.91 -0.1425463 -50.152729 -14.909362 -140.15273 -14.909362 -140.15273 -0.1425463 -50.152729 
0.92 -0.20554102 -54.102001 -13.351223 -144.102 -13.351223 -144.102 -0.20554102 -54.102001 
0.93 -0.3028852 -58.765514 -11.715625 -148.76551 -11.715625 -148.76551 -0.3028852 -58.765514 
0.94 -0.45738427 -64.356926 -10.001716 -154.35693 -10.001716 -154.35693 -0.45738427 -64.356926 
0.95 -0.70965251 -71.163936 -8.2173814 -161.16394 -8.2173814 -161.16394 -0.70965251 -71.163936 
0.96 -1.133279 -79.556043 -6.3887994 -169.55604 -6.3887994 -169.55604 -1.133279 -79.556043 
0.97 -1.8616752 -89.948531 -4.5764407 -179.94853 -4.5764407 -179.94853 -1.8616752 -89.948531 
0.98 -3.1301111 -102.6484 -2.8937056 167.3516 -2.8937056 167.3516 -3.1301111 -102.6484 
0.99 -5.3328665 -117.51578 -1.5051667 152.48422 -1.5051667 152.48422 -5.3328665 -117.51578 
1 -9.1490177 -133.62462 -0.56330472 136.37538 -0.56330472 136.37538 -9.1490177 -133.62462 
1.01 -16.403077 -149.48079 -0.10057632 120.51921 -0.10057632 120.51921 -16.403077 -149.48079 
1.02 -34.412109 16.138663 -0.0015727225 106.13866 -0.0015727225 106.13866 -34.412109 16.138663 
1.03 -16.620077 3.6551348 -0.095620022 93.655135 -0.095620022 93.655135 -16.620077 3.6551348 
1.04 -12.563718 -7.1254047 -0.24759006 82.874595 -0.24759006 82.874595 -12.563718 -7.1254047 
1.05 -10.764752 -16.624652 -0.38035407 73.375348 -0.38035407 73.375348 -10.764752 -16.624652 
1.06 -9.9748508 -25.263715 -0.46037827 64.736285 -0.46037827 64.736285 -9.9748508 -25.263715 
1.07 -9.8043946 -33.387815 -0.4798628 56.612185 -0.4798628 56.612185 -9.8043946 -33.387815 
1.08 -10.114969 -41.258231 -0.4449864 48.741769 -0.4449864 48.741769 -10.114969 -41.258231 
1.09 -10.885922 -49.061942 -0.3694305 40.938058 -0.3694305 40.938058 -10.885922 -49.061942 
1.1 -12.186261 -56.921202 -0.27078661 33.078798 -0.27078661 33.078798 -12.186261 -56.921202 
1.11 -14.20592 -64.899622 -0.16810098 25.100378 -0.16810098 25.100378 -14.20592 -64.899622 
1.12 -17.408149 -73.006814 -0.079605605 16.993186 -0.079605605 16.993186 -17.408149 -73.006814 
1.13 -23.30218 -81.205283 -0.020350891 8.7947174 -0.020350891 8.7947174 -23.30218 -81.205283 
1.14 -59.305771 90.577386 -5.095742e-06 0.57738615 -5.095742e-06 0.57738615 -59.305771 90.577386 
1.15 -23.082815 82.43067 -0.021407835 -7.5693304 -0.021407835 -7.5693304 -23.082815 82.43067 
1.16 -17.365779 74.440583 -0.080393296 -15.559417 -0.080393296 -15.559417 -17.365779 74.440583 
1.17 -14.235092 66.671423 -0.1669537 -23.328577 -0.1669537 -23.328577 -14.235092 66.671423 
1.18 -12.240841 59.153789 -0.26729853 -30.846211 -0.26729853 -30.846211 -12.240841 59.153789 
1.19 -10.92326 51.879938 -0.36613078 -38.120062 -0.36613078 -38.120062 -10.92326 51.879938 
1.2 -10.081581 44.804626 -0.44860425 -45.195374 -0.44860425 -45.195374 -10.081581 44.804626 
1.21 -9.6212584 37.848399 -0.50177092 -52.151601 -0.50177092 -52.151601 -9.6212584 37.848399 
1.22 -9.5095289 30.900624 -0.51565483 -59.099376 -0.51565483 -59.099376 -9.5095289 30.900624 
1.23 -9.7665843 23.820859 -0.48430167 -66.179141 -0.48430167 -66.179141 -9.7665843 23.820859 
1.24 -10.481034 16.438832 -0.40727279 -73.561168 -0.40727279 -73.561168 -10.481034 16.438832 
1.25 -11.867557 8.5555212 -0.29211403 -81.444479 -0.29211403 -81.444479 -11.867557 8.5555212 
1.26 -14.463321 -0.048413749 -0.15824888 -90.048414 -0.15824888 -90.048414 -14.463321 -0.048413749 
1.27 -20.151991 -9.5848911 -0.042139606 -99.584891 -0.042139606 -99.584891 -20.151991 -9.5848911 
1.28 -34.302488 159.80541 -0.0016129325 -110.19459 -0.0016129325 -110.19459 -34.302488 159.80541 
1.29 -15.885371 148.1597 -0.11347724 -121.8403 -0.11347724 -121.8403 -15.885371 148.1597 
1.3 -10.012533 135.80109 -0.45618464 -134.19891 -0.45618464 -134.19891 -10.012533 135.80109 
1.31 -6.5801357 123.33818 -1.0778243 -146.66182 -1.0778243 -146.66182 -6.5801357 123.33818 
1.32 -4.3805401 111.47811 -1.9702701 -158.52189 -1.9702701 -158.52189 -4.3805401 111.47811 
1.33 -2.9473381 100.76324 -3.0741881 -169.23676 -3.0741881 -169.23676 -2.9473381 100.76324 
1.34 -2.0114988 91.436848 -4.3096448 -178.56315 -4.3096448 -178.56315 -2.0114988 91.436848 
1.35 -1.3972975 83.487279 -5.6048873 173.48728 -5.6048873 173.48728 -1.3972975 83.487279 
1.36 -0.98964384 76.764238 -6.9084834 166.76424 -6.9084834 166.76424 -0.98964384 76.764238 
1.37 -0.71476717 71.073951 -8.1886803 161.07395 -8.1886803 161.07395 -0.71476717 71.073951 
1.38 -0.52602289 66.230185 -9.4281538 156.23019 -9.4281538 156.23019 -0.52602289 66.230185 
1.39 -0.39396028 62.073485 -10.61881 152.07349 -10.61881 152.07349 -0.39396028 62.073485 
1.4 -0.29984007 58.474296 -11.758004 148.4743 -11.758004 148.4743 -0.29984007 58.474296 
1.41 -0.23157928 55.329749 -12.846121 145.32975 -12.846121 145.32975 -0.23157928 55.329749 
1.42 -0.18126043 52.558801 -13.885128 142.5588 -13.885128 142.5588 -0.18126043 52.558801 
1.43 -0.14360568 50.097575 -14.877732 140.09757 -14.877732 140.09757 -0.14360568 50.097575 
1.44 -0.11503556 47.895479 -15.826913 137.89548 -15.826913 137.89548 -0.11503556 47.895479 
1.45 -0.093081533 45.912155 -16.735665 135.91216 -16.735665 135.91216 -0.093081533 45.912155 
1.46 -0.076013854 44.115135 -17.606867 134.11514 -17.606867 134.11514 -0.076013854 44.115135 
1.47 -0.062602163 42.478072 -18.443213 132.47807 -18.443213 132.47807 -0.062602163 42.478072 
1.48 -0.051958936 40.979393 -19.247194 130.97939 -19.247194 130.97939 -0.051958936 40.979393 
1.49 -0.043435529 39.601286 -20.021092 129.60129 -20.021092 129.60129 -0.043435529 39.601286 
1.5 -0.036552066 38.328918 -20.766987 128.32892 -20.766987 128.32892 -0.036552066 38.328918 
1.51 -0.03094948 37.149846 -21.486775 127.14985 -21.486775 127.14985 -0.03094948 37.149846 
1.52 -0.026356242 36.053548 -22.18218 126.05355 -22.18218 126.05355 -0.026356242 36.053548 
1.53 -0.022564988 35.031068 -22.85477 125.03107 -22.85477 125.03107 -0.022564988 35.031068 
1.54 -0.019415891 34.074735 -23.505974 124.07473 -23.505974 124.07473 -0.019415891 34.074735 
1.55 -0.016784698 33.177934 -24.137098 123.17793 -24.137098 123.17793 -0.016784698 33.177934 
1.56 -0.014574031 32.33493 -24.749331 122.33493 -24.749331 122.33493 -0.014574031 32.33493 
1.57 -0.012706996 31.540729 -25.343766 121.54073 -25.343766 121.54073 -0.012706996 31.540729 
1.58 -0.011122438 30.790951 -25.921403 120.79095 -25.921403 120.79095 -0.011122438 30.790951 
1.59 -0.0097713952 30.081747 -26.483162 120.08175 -26.483162 120.08175 -0.0097713952 30.081747 
1.6 -0.0086144175 29.409711 -27.02989 119.40971 -27.02989 119.40971 -0.0086144175 29.409711 
1.61 -0.0076195315 28.771823 -27.56237 118.77182 -27.56237 118.77182 -0.0076195315 28.771823 
1.62 -0.0067606751 28.165391 -28.081322 118.16539 -28.081322 118.16539 -0.0067606751 28.165391 
1.63 -0.0060164914 27.588009 -28.587418 117.58801 -28.587418 117.58801 -0.0060164914 27.588009 
1.64 -0.0053693906 27.037518 -29.081278 117.03752 -29.081278 117.03752 -0.0053693906 27.037518 
1.65 -0.0048048153 26.511975 -29.563478 116.51198 -29.563478 116.51198 -0.0048048153 26.511975 
1.66 -0.0043106628 26.009626 -30.034558 116.00963 -30.034558 116.00963 -0.0043106628 26.009626 
1.67 -0.003876827 25.528882 -30.495017 115.52888 -30.495017 115.52888 -0.003876827 25.528882 
1.68 -0.0034948341 25.068302 -30.945325 115.0683 -30.945325 115.0683 -0.0034948341 25.068302 
1.69 -0.0031575508 24.626573 -31.385918 114.62657 -31.385918 114.62657 -0.0031575508 24.626573 
1.7 -0.002858949 24.202499 -31.817208 114.2025 -31.817208 114.2025 -0.002858949 24.202499 
1.71 -0.0025939167 23.794985 -32.23958 113.79499 -32.23958 113.79499 -0.0025939167 23.794985 
1.72 -0.0023581033 23.403027 -32.653394 113.40303 -32.653394 113.40303 -0.0023581033 23.403027 
1.73 -0.0021477939 23.025704 -33.058991 113.0257 -33.058991 113.0257 -0.0021477939 23.025704 
1.74 -0.0019598064 22.662168 -33.456691 112.66217 -33.456691 112.66217 -0.0019598064 22.662168 
1.75 -0.0017914068 22.311638 -33.846797 112.31164 -33.846797 112.31164 -0.0017914068 22.311638 
1.76 -0.0016402389 21.973391 -34.229592 111.97339 -34.229592 111.97339 -0.0016402389 21.973391 
1.77 -0.0015042665 21.646759 -34.605347 111.64676 -34.605347 111.64676 -0.0015042665 21.646759 
1.78 -0.0013817254 21.331124 -34.974317 111.33112 -34.974317 111.33112 -0.0013817254 21.331124 
1.79 -0.0012710824 21.025911 -35.336742 111.02591 -35.336742 111.02591 -0.0012710824 21.025911 
1.8 -0.0011710023 20.730586 -35.692851 110.73059 -35.692851 110.73059 -0.0011710023 20.730586 
1.81 -0.0010803194 20.444651 -36.042861 110.44465 -36.042861 110.44465 -0.0010803194 20.444651 
1.82 -0.00099801319 20.167643 -36.386979 110.16764 -36.386979 110.16764 -0.00099801319 20.167643 
1.83 -0.00092318861 19.89913 -36.7254 109.89913 -36.7254 109.89913 -0.00092318861 19.89913 
1.84 -0.0008550588 19.638706 -37.058311 109.63871 -37.058311 109.63871 -0.0008550588 19.638706 
1.85 -0.00079293052 19.385993 -37.385888 109.38599 -37.385888 109.38599 -0.00079293052 19.385993 
1.86 -0.0007361918 19.140638 -37.708301 109.14064 -37.708301 109.14064 -0.0007361918 19.140638 
1.87 -0.00068430128 18.902306 -38.025712 108.90231 -38.025712 108.90231 -0.00068430128 18.902306 
1.88 -0.00063677919 18.670685 -38.338273 108.67069 -38.338273 108.67069 -0.00063677919 18.670685 
1.89 -0.00059319953 18.445483 -38.646132 108.44548 -38.646132 108.44548 -0.00059319953 18.445483 
1.9 -0.00055318336 18.226422 -38.949429 108.22642 -38.949429 108.22642 -0.00055318336 18.226422 
1.91 -0.000516393 18.013242 -39.248298 108.01324 -39.248298 108.01324 -0.000516393 18.013242 
1.92 -0.00048252705 17.805698 -39.542868 107.8057 -39.542868 107.8057 -0.00048252705 17.805698 
1.93 -0.00045131601 17.603558 -39.833261 107.60356 -39.833261 107.60356 -0.00045131601 17.603558 
1.94 -0.00042251856 17.406603 -40.119596 107.4066 -40.119596 107.4066 -0.00042251856 17.406603 
1.95 -0.00039591824 17.214626 -40.401986 107.21463 -40.401986 107.21463 -0.00039591824 17.214626 
1.96 -0.0003713206 17.027432 -40.680538 107.02743 -40.680538 107.02743 -0.0003713206 17.027432 
1.97 -0.00034855072 16.844835 -40.955357 106.84483 -40.955357 106.84483 -0.00034855072 16.844835 
1.98 -0.00032745102 16.666659 -41.226543 106.66666 -41.226543 106.66666 -0.00032745102 16.666659 
1.99 -0.00030787933 16.492739 -41.494192 106.49274 -41.494192 106.49274 -0.00030787933 16.492739 
2 -0.0002897072 16.322914 -41.758395 106.32291 -41.758395 106.32291 -0.0002897072 16.322914 
2.01 -0.00027281847 16.157036 -42.019242 106.15704 -42.019242 106.15704 -0.00027281847 16.157036 
2.02 -0.00025710789 15.994962 -42.276818 105.99496 -42.276818 105.99496 -0.00025710789 15.994962 
2.03 -0.00024248003 15.836555 -42.531204 105.83655 -42.531204 105.83655 -0.00024248003 15.836555 
2.04 -0.00022884825 15.681686 -42.782482 105.68169 -42.782482 105.68169 -0.00022884825 15.681686 
2.05 -0.00021613375 15.530233 -43.030725 105.53023 -43.030725 105.53023 -0.00021613375 15.530233 
2.06 -0.00020426484 15.382077 -43.276009 105.38208 -43.276009 105.38208 -0.00020426484 15.382077 
2.07 -0.00019317618 15.237107 -43.518404 105.23711 -43.518404 105.23711 -0.00019317618 15.237107 
2.08 -0.00018280818 15.095215 -43.757978 105.09522 -43.757978 105.09522 -0.00018280818 15.095215 
2.09 -0.00017310642 14.956301 -43.994798 104.9563 -43.994798 104.9563 -0.00017310642 14.956301 
2.1 -0.00016402113 14.820266 -44.228927 104.82027 -44.228927 104.82027 -0.00016402113 14.820266 
2.11 -0.0001555068 14.687018 -44.460427 104.68702 -44.460427 104.68702 -0.0001555068 14.687018 
2.12 -0.00014752171 14.556466 -44.689358 104.55647 -44.689358 104.55647 -0.00014752171 14.556466 
2.13 -0.00014002762 14.428527 -44.915776 104.42853 -44.915776 104.42853 -0.00014002762 14.428527 
2.14 -0.00013298943 14.303118 -45.139738 104.30312 -45.139738 104.30312 -0.00013298943 14.303118 
2.15 -0.00012637489 14.180162 -45.361298 104.18016 -45.361298 104.18016 -0.00012637489 14.180162 
2.16 -0.00012015436 14.059583 -45.580508 104.05958 -45.580508 104.05958 -0.00012015436 14.059583 
2.17 -0.00011430053 13.941309 -45.797418 103.94131 -45.797418 103.94131 -0.00011430053 13.941309 
2.18 -0.00010878827 13.825272 -46.012077 103.82527 -46.012077 103.82527 -0.00010878827 13.825272 
2.19 -0.0001035944 13.711406 -46.224532 103.71141 -46.224532 103.71141 -0.0001035944 13.711406 
2.2 -9.8697518e-05 13.599647 -46.43483 103.59965 -46.43483 103.59965 -9.8697518e-05 13.599647 
2.21 -9.4077882e-05 13.489933 -46.643015 103.48993 -46.643015 103.48993 -9.4077882e-05 13.489933 
2.22 -8.9717227e-05 13.382208 -46.84913 103.38221 -46.84913 103.38221 -8.9717227e-05 13.382208 
2.23 -8.5598662e-05 13.276414 -47.053216 103.27641 -47.053216 103.27641 -8.5598662e-05 13.276414 
2.24 -8.1706551e-05 13.172496 -47.255315 103.1725 -47.255315 103.1725 -8.1706551e-05 13.172496 
2.25 -7.8026405e-05 13.070404 -47.455466 103.0704 -47.455466 103.0704 -7.8026405e-05 13.070404 
2.26 -7.4544793e-05 12.970087 -47.653707 102.97009 -47.653707 102.97009 -7.4544793e-05 12.970087 
2.27 -7.1249252e-05 12.871496 -47.850076 102.8715 -47.850076 102.8715 -7.1249252e-05 12.871496 
2.28 -6.8128209e-05 12.774585 -48.044607 102.77458 -48.044607 102.77458 -6.8128209e-05 12.774585 
2.29 -6.5170912e-05 12.679309 -48.237338 102.67931 -48.237338 102.67931 -6.5170912e-05 12.679309 
2.3 -6.2367362e-05 12.585626 -48.428301 102.58563 -48.428301 102.58563 -6.2367362e-05 12.585626 
2.31 -5.9708257e-05 12.493492 -48.617529 102.49349 -48.617529 102.49349 -5.9708257e-05 12.493492 
2.32 -5.7184933e-05 12.402869 -48.805056 102.40287 -48.805056 102.40287 -5.7184933e-05 12.402869 
2.33 -5.4789322e-05 12.313717 -48.990911 102.31372 -48.990911 102.31372 -5.4789322e-05 12.313717 
2.34 -5.25139e-05 12.225999 -49.175127 102.226 -49.175127 102.226 -5.25139e-05 12.225999 
2.35 -5.0351646e-05 12.139679 -49.357732 102.13968 -49.357732 102.13968 -5.0351646e-05 12.139679 
2.36 -4.829601e-05 12.054722 -49.538755 102.05472 -49.538755 102.05472 -4.829601e-05 12.054722 
2.37 -4.6340872e-05 11.971094 -49.718224 101.97109 -49.718224 101.97109 -4.6340872e-05 11.971094 
2.38 -4.4480511e-05 11.888762 -49.896168 101.88876 -49.896168 101.88876 -4.4480511e-05 11.888762 
2.39 -4.2709579e-05 11.807696 -50.072612 101.8077 -50.072612 101.8077 -4.2709579e-05 11.807696 
2.4 -4.1023072e-05 11.727864 -50.247582 101.72786 -50.247582 101.72786 -4.1023072e-05 11.727864 
2.41 -3.9416303e-05 11.649237 -50.421104 101.64924 -50.421104 101.64924 -3.9416303e-05 11.649237 
2.42 -3.7884884e-05 11.571787 -50.593202 101.57179 -50.593202 101.57179 -3.7884884e-05 11.571787 
2.43 -3.6424701e-05 11.495485 -50.763901 101.49549 -50.763901 101.49549 -3.6424701e-05 11.495485 
2.44 -3.5031895e-05 11.420306 -50.933224 101.42031 -50.933224 101.42031 -3.5031895e-05 11.420306 
2.45 -3.3702848e-05 11.346223 -51.101194 101.34622 -51.101194 101.34622 -3.3702848e-05 11.346223 
2.46 -3.2434159e-05 11.273211 -51.267833 101.27321 -51.267833 101.27321 -3.2434159e-05 11.273211 
2.47 -3.1222639e-05 11.201246 -51.433163 101.20125 -51.433163 101.20125 -3.1222639e-05 11.201246 
2.48 -3.0065288e-05 11.130304 -51.597204 101.1303 -51.597204 101.1303 -3.0065288e-05 11.130304 
2.49 -2.8959285e-05 11.060363 -51.759979 101.06036 -51.759979 101.06036 -2.8959285e-05 11.060363 
2.5 -2.7901979e-05 10.9914 -51.921507 100.9914 -51.921507 100.9914 -2.7901979e-05 10.9914 
2.51 -2.6890872e-05 10.923394 -52.081808 100.92339 -52.081808 100.92339 -2.6890872e-05 10.923394 
2.52 -2.5923614e-05 10.856324 -52.240901 100.85632 -52.240901 100.85632 -2.5923614e-05 10.856324 
2.53 -2.4997992e-05 10.79017 -52.398804 100.79017 -52.398804 100.79017 -2.4997992e-05 10.79017 
2.54 -2.4111917e-05 10.724912 -52.555538 100.72491 -52.555538 100.72491 -2.4111917e-05 10.724912 
2.55 -2.3263424e-05 10.660531 -52.711118 100.66053 -52.711118 100.66053 -2.3263424e-05 10.660531 
2.56 -2.2450656e-05 10.597008 -52.865564 100.59701 -52.865564 100.59701 -2.2450656e-05 10.597008 
2.57 -2.1671861e-05 10.534326 -53.018892 100.53433 -53.018892 100.53433 -2.1671861e-05 10.534326 
2.58 -2.0925387e-05 10.472467 -53.171119 100.47247 -53.171119 100.47247 -2.0925387e-05 10.472467 
2.59 -2.0209671e-05 10.411414 -53.322261 100.41141 -53.322261 100.41141 -2.0209671e-05 10.411414 
2.6 -1.9523239e-05 10.35115 -53.472334 100.35115 -53.472334 100.35115 -1.9523239e-05 10.35115 
2.61 -1.8864694e-05 10.291661 -53.621355 100.29166 -53.621355 100.29166 -1.8864694e-05 10.291661 
2.62 -1.8232718e-05 10.232929 -53.769338 100.23293 -53.769338 100.23293 -1.8232718e-05 10.232929 
2.63 -1.7626062e-05 10.174939 -53.916299 100.17494 -53.916299 100.17494 -1.7626062e-05 10.174939 
2.64 -1.7043547e-05 10.117678 -54.062252 100.11768 -54.062252 100.11768 -1.7043547e-05 10.117678 
2.65 -1.6484052e-05 10.061131 -54.207212 100.06113 -54.207212 100.06113 -1.6484052e-05 10.061131 
2.66 -1.594652e-05 10.005283 -54.351192 100.00528 -54.351192 100.00528 -1.594652e-05 10.005283 
2.67 -1.5429946e-05 9.9501206 -54.494207 99.950121 -54.494207 99.950121 -1.5429946e-05 9.9501206 
2.68 -1.493338e-05 9.8956314 -54.63627 99.895631 -54.63627 99.895631 -1.493338e-05 9.8956314 
2.69 -1.4455918e-05 9.841802 -54.777394 99.841802 -54.777394 99.841802 -1.4455918e-05 9.841802 
2.7 -1.3996706e-05 9.78862 -54.917592 99.78862 -54.917592 99.78862 -1.3996706e-05 9.78862 
2.71 -1.3554931e-05 9.736073 -55.056877 99.736073 -55.056877 99.736073 -1.3554931e-05 9.736073 
2.72 -1.3129822e-05 9.6841491 -55.195261 99.684149 -55.195261 99.684149 -1.3129822e-05 9.6841491 
2.73 -1.2720648e-05 9.6328368 -55.332757 99.632837 -55.332757 99.632837 -1.2720648e-05 9.6328368 
2.74 -1.2326713e-05 9.5821246 -55.469376 99.582125 -55.469376 99.582125 -1.2326713e-05 9.5821246 
2.75 -1.1947357e-05 9.5320016 -55.605131 99.532002 -55.605131 99.532002 -1.1947357e-05 9.5320016 
2.76 -1.1581952e-05 9.482457 -55.740031 99.482457 -55.740031 99.482457 -1.1581952e-05 9.482457 
2.77 -1.12299e-05 9.4334802 -55.87409 99.43348 -55.87409 99.43348 -1.12299e-05 9.4334802 
2.78 -1.0890634e-05 9.3850611 -56.007317 99.385061 -56.007317 99.385061 -1.0890634e-05 9.3850611 
2.79 -1.0563612e-05 9.3371896 -56.139724 99.33719 -56.139724 99.33719 -1.0563612e-05 9.3371896 
2.8 -1.0248321e-05 9.289856 -56.271321 99.289856 -56.271321 99.289856 -1.0248321e-05 9.289856 
2.81 -9.9442715e-06 9.2430509 -56.402118 99.243051 -56.402118 99.243051 -9.9442715e-06 9.2430509 
2.82 -9.6509962e-06 9.1967648 -56.532126 99.196765 -56.532126 99.196765 -9.6509962e-06 9.1967648 
2.83 -9.368051e-06 9.1509889 -56.661355 99.150989 -56.661355 99.150989 -9.368051e-06 9.1509889 
2.84 -9.0950126e-06 9.1057141 -56.789815 99.105714 -56.789815 99.105714 -9.0950126e-06 9.1057141 
2.85 -8.8314772e-06 9.0609319 -56.917514 99.060932 -56.917514 99.060932 -8.8314772e-06 9.0609319 
2.86 -8.5770599e-06 9.0166339 -57.044463 99.016634 -57.044463 99.016634 -8.5770599e-06 9.0166339 
2.87 -8.3313937e-06 8.9728118 -57.170671 98.972812 -57.170671 98.972812 -8.3313937e-06 8.9728118 
2.88 -8.0941283e-06 8.9294575 -57.296146 98.929458 -57.296146 98.929458 -8.0941283e-06 8.9294575 
2.89 -7.8649295e-06 8.8865633 -57.420899 98.886563 -57.420899 98.886563 -7.8649295e-06 8.8865633 
2.9 -7.6434781e-06 8.8441214 -57.544937 98.844121 -57.544937 98.844121 -7.6434781e-06 8.8441214 
2.91 -7.4294694e-06 8.8021243 -57.668269 98.802124 -57.668269 98.802124 -7.4294694e-06 8.8021243 
2.92 -7.2226124e-06 8.7605647 -57.790904 98.760565 -57.790904 98.760565 -7.2226124e-06 8.7605647 
2.93 -7.0226292e-06 8.7194355 -57.912849 98.719435 -57.912849 98.719435 -7.0226292e-06 8.7194355 
2.94 -6.8292538e-06 8.6787295 -58.034114 98.67873 -58.034114 98.67873 -6.8292538e-06 8.6787295 
2.95 -6.6422324e-06 8.63844 -58.154706 98.63844 -58.154706 98.63844 -6.6422324e-06 8.63844 
2.96 -6.4613221e-06 8.5985603 -58.274632 98.59856 -58.274632 98.59856 -6.4613221e-06 8.5985603 
2.97 -6.2862905e-06 8.5590837 -58.393902 98.559084 -58.393902 98.559084 -6.2862905e-06 8.5590837 
2.98 -6.1169156e-06 8.5200039 -58.512521 98.520004 -58.512521 98.520004 -6.1169156e-06 8.5200039 
2.99 -5.9529845e-06 8.4813147 -58.630499 98.481315 -58.630499 98.481315 -5.9529845e-06 8.4813147 
3 -5.7942939e-06 8.4430098 -58.747841 98.44301 -58.747841 98.44301 -5.7942939e-06 8.4430098 
3.01 -5.6406488e-06 8.4050832 -58.864555 98.405083 -58.864555 98.405083 -5.6406488e-06 8.4050832 
3.02 -5.4918628e-06 8.3675292 -58.980649 98.367529 -58.980649 98.367529 -5.4918628e-06 8.3675292 
3.03 -5.347757e-06 8.3303418 -59.096129 98.330342 -59.096129 98.330342 -5.347757e-06 8.3303418 
3.04 -5.2081603e-06 8.2935155 -59.211002 98.293516 -59.211002 98.293516 -5.2081603e-06 8.2935155 